# vtk DataFile Version 3.0
vtk output
ASCII
DATASET STRUCTURED_GRID
DIMENSIONS 61 71 1
POINTS 4331 double
0 0 0
0.05 0 0
0.1 0 0
0.15 0 0
0.2 0 0
0.25 0 0
0.3 0 0
0.35 0 0
0.4 0 0
0.45 0 0
0.5 0 0
0.55 0 0
0.6 0 0
0.65 0 0
0.7 0 0
0.75 0 0
0.8 0 0
0.85 0 0
0.9 0 0
0.95 0 0
1 0 0
1.05 0 0
1.1 0 0
1.15 0 0
1.2 0 0
1.25 0 0
1.3 0 0
1.35 0 0
1.4 0 0
1.45 0 0
1.5 0 0
1.55 0 0
1.6 0 0
1.65 0 0
1.7 0 0
1.75 0 0
1.8 0 0
1.85 0 0
1.9 0 0
1.95 0 0
2 0 0
2.05 0 0
2.1 0 0
2.15 0 0
2.2 0 0
2.25 0 0
2.3 0 0
2.35 0 0
2.4 0 0
2.45 0 0
2.5 0 0
2.55 0 0
2.6 0 0
2.65 0 0
2.7 0 0
2.75 0 0
2.8 0 0
2.85 0 0
2.9 0 0
2.95 0 0
3 0 0
0 0.05 0
0.05 0.05 0
0.1 0.05 0
0.15 0.05 0
0.2 0.05 0
0.25 0.05 0
0.3 0.05 0
0.35 0.05 0
0.4 0.05 0
0.45 0.05 0
0.5 0.05 0
0.55 0.05 0
0.6 0.05 0
0.65 0.05 0
0.7 0.05 0
0.75 0.05 0
0.8 0.05 0
0.85 0.05 0
0.9 0.05 0
0.95 0.05 0
1 0.05 0
1.05 0.05 0
1.1 0.05 0
1.15 0.05 0
1.2 0.05 0
1.25 0.05 0
1.3 0.05 0
1.35 0.05 0
1.4 0.05 0
1.45 0.05 0
1.5 0.05 0
1.55 0.05 0
1.6 0.05 0
1.65 0.05 0
1.7 0.05 0
1.75 0.05 0
1.8 0.05 0
1.85 0.05 0
1.9 0.05 0
1.95 0.05 0
2 0.05 0
2.05 0.05 0
2.1 0.05 0
2.15 0.05 0
2.2 0.05 0
2.25 0.05 0
2.3 0.05 0
2.35 0.05 0
2.4 0.05 0
2.45 0.05 0
2.5 0.05 0
2.55 0.05 0
2.6 0.05 0
2.65 0.05 0
2.7 0.05 0
2.75 0.05 0
2.8 0.05 0
2.85 0.05 0
2.9 0.05 0
2.95 0.05 0
3 0.05 0
0 0.1 0
0.05 0.1 0
0.1 0.1 0
0.15 0.1 0
0.2 0.1 0
0.25 0.1 0
0.3 0.1 0
0.35 0.1 0
0.4 0.1 0
0.45 0.1 0
0.5 0.1 0
0.55 0.1 0
0.6 0.1 0
0.65 0.1 0
0.7 0.1 0
0.75 0.1 0
0.8 0.1 0
0.85 0.1 0
0.9 0.1 0
0.95 0.1 0
1 0.1 0
1.05 0.1 0
1.1 0.1 0
1.15 0.1 0
1.2 0.1 0
1.25 0.1 0
1.3 0.1 0
1.35 0.1 0
1.4 0.1 0
1.45 0.1 0
1.5 0.1 0
1.55 0.1 0
1.6 0.1 0
1.65 0.1 0
1.7 0.1 0
1.75 0.1 0
1.8 0.1 0
1.85 0.1 0
1.9 0.1 0
1.95 0.1 0
2 0.1 0
2.05 0.1 0
2.1 0.1 0
2.15 0.1 0
2.2 0.1 0
2.25 0.1 0
2.3 0.1 0
2.35 0.1 0
2.4 0.1 0
2.45 0.1 0
2.5 0.1 0
2.55 0.1 0
2.6 0.1 0
2.65 0.1 0
2.7 0.1 0
2.75 0.1 0
2.8 0.1 0
2.85 0.1 0
2.9 0.1 0
2.95 0.1 0
3 0.1 0
0 0.15 0
0.05 0.15 0
0.1 0.15 0
0.15 0.15 0
0.2 0.15 0
0.25 0.15 0
0.3 0.15 0
0.35 0.15 0
0.4 0.15 0
0.45 0.15 0
0.5 0.15 0
0.55 0.15 0
0.6 0.15 0
0.65 0.15 0
0.7 0.15 0
0.75 0.15 0
0.8 0.15 0
0.85 0.15 0
0.9 0.15 0
0.95 0.15 0
1 0.15 0
1.05 0.15 0
1.1 0.15 0
1.15 0.15 0
1.2 0.15 0
1.25 0.15 0
1.3 0.15 0
1.35 0.15 0
1.4 0.15 0
1.45 0.15 0
1.5 0.15 0
1.55 0.15 0
1.6 0.15 0
1.65 0.15 0
1.7 0.15 0
1.75 0.15 0
1.8 0.15 0
1.85 0.15 0
1.9 0.15 0
1.95 0.15 0
2 0.15 0
2.05 0.15 0
2.1 0.15 0
2.15 0.15 0
2.2 0.15 0
2.25 0.15 0
2.3 0.15 0
2.35 0.15 0
2.4 0.15 0
2.45 0.15 0
2.5 0.15 0
2.55 0.15 0
2.6 0.15 0
2.65 0.15 0
2.7 0.15 0
2.75 0.15 0
2.8 0.15 0
2.85 0.15 0
2.9 0.15 0
2.95 0.15 0
3 0.15 0
0 0.2 0
0.05 0.2 0
0.1 0.2 0
0.15 0.2 0
0.2 0.2 0
0.25 0.2 0
0.3 0.2 0
0.35 0.2 0
0.4 0.2 0
0.45 0.2 0
0.5 0.2 0
0.55 0.2 0
0.6 0.2 0
0.65 0.2 0
0.7 0.2 0
0.75 0.2 0
0.8 0.2 0
0.85 0.2 0
0.9 0.2 0
0.95 0.2 0
1 0.2 0
1.05 0.2 0
1.1 0.2 0
1.15 0.2 0
1.2 0.2 0
1.25 0.2 0
1.3 0.2 0
1.35 0.2 0
1.4 0.2 0
1.45 0.2 0
1.5 0.2 0
1.55 0.2 0
1.6 0.2 0
1.65 0.2 0
1.7 0.2 0
1.75 0.2 0
1.8 0.2 0
1.85 0.2 0
1.9 0.2 0
1.95 0.2 0
2 0.2 0
2.05 0.2 0
2.1 0.2 0
2.15 0.2 0
2.2 0.2 0
2.25 0.2 0
2.3 0.2 0
2.35 0.2 0
2.4 0.2 0
2.45 0.2 0
2.5 0.2 0
2.55 0.2 0
2.6 0.2 0
2.65 0.2 0
2.7 0.2 0
2.75 0.2 0
2.8 0.2 0
2.85 0.2 0
2.9 0.2 0
2.95 0.2 0
3 0.2 0
0 0.25 0
0.05 0.25 0
0.1 0.25 0
0.15 0.25 0
0.2 0.25 0
0.25 0.25 0
0.3 0.25 0
0.35 0.25 0
0.4 0.25 0
0.45 0.25 0
0.5 0.25 0
0.55 0.25 0
0.6 0.25 0
0.65 0.25 0
0.7 0.25 0
0.75 0.25 0
0.8 0.25 0
0.85 0.25 0
0.9 0.25 0
0.95 0.25 0
1 0.25 0
1.05 0.25 0
1.1 0.25 0
1.15 0.25 0
1.2 0.25 0
1.25 0.25 0
1.3 0.25 0
1.35 0.25 0
1.4 0.25 0
1.45 0.25 0
1.5 0.25 0
1.55 0.25 0
1.6 0.25 0
1.65 0.25 0
1.7 0.25 0
1.75 0.25 0
1.8 0.25 0
1.85 0.25 0
1.9 0.25 0
1.95 0.25 0
2 0.25 0
2.05 0.25 0
2.1 0.25 0
2.15 0.25 0
2.2 0.25 0
2.25 0.25 0
2.3 0.25 0
2.35 0.25 0
2.4 0.25 0
2.45 0.25 0
2.5 0.25 0
2.55 0.25 0
2.6 0.25 0
2.65 0.25 0
2.7 0.25 0
2.75 0.25 0
2.8 0.25 0
2.85 0.25 0
2.9 0.25 0
2.95 0.25 0
3 0.25 0
0 0.3 0
0.05 0.3 0
0.1 0.3 0
0.15 0.3 0
0.2 0.3 0
0.25 0.3 0
0.3 0.3 0
0.35 0.3 0
0.4 0.3 0
0.45 0.3 0
0.5 0.3 0
0.55 0.3 0
0.6 0.3 0
0.65 0.3 0
0.7 0.3 0
0.75 0.3 0
0.8 0.3 0
0.85 0.3 0
0.9 0.3 0
0.95 0.3 0
1 0.3 0
1.05 0.3 0
1.1 0.3 0
1.15 0.3 0
1.2 0.3 0
1.25 0.3 0
1.3 0.3 0
1.35 0.3 0
1.4 0.3 0
1.45 0.3 0
1.5 0.3 0
1.55 0.3 0
1.6 0.3 0
1.65 0.3 0
1.7 0.3 0
1.75 0.3 0
1.8 0.3 0
1.85 0.3 0
1.9 0.3 0
1.95 0.3 0
2 0.3 0
2.05 0.3 0
2.1 0.3 0
2.15 0.3 0
2.2 0.3 0
2.25 0.3 0
2.3 0.3 0
2.35 0.3 0
2.4 0.3 0
2.45 0.3 0
2.5 0.3 0
2.55 0.3 0
2.6 0.3 0
2.65 0.3 0
2.7 0.3 0
2.75 0.3 0
2.8 0.3 0
2.85 0.3 0
2.9 0.3 0
2.95 0.3 0
3 0.3 0
0 0.35 0
0.05 0.35 0
0.1 0.35 0
0.15 0.35 0
0.2 0.35 0
0.25 0.35 0
0.3 0.35 0
0.35 0.35 0
0.4 0.35 0
0.45 0.35 0
0.5 0.35 0
0.55 0.35 0
0.6 0.35 0
0.65 0.35 0
0.7 0.35 0
0.75 0.35 0
0.8 0.35 0
0.85 0.35 0
0.9 0.35 0
0.95 0.35 0
1 0.35 0
1.05 0.35 0
1.1 0.35 0
1.15 0.35 0
1.2 0.35 0
1.25 0.35 0
1.3 0.35 0
1.35 0.35 0
1.4 0.35 0
1.45 0.35 0
1.5 0.35 0
1.55 0.35 0
1.6 0.35 0
1.65 0.35 0
1.7 0.35 0
1.75 0.35 0
1.8 0.35 0
1.85 0.35 0
1.9 0.35 0
1.95 0.35 0
2 0.35 0
2.05 0.35 0
2.1 0.35 0
2.15 0.35 0
2.2 0.35 0
2.25 0.35 0
2.3 0.35 0
2.35 0.35 0
2.4 0.35 0
2.45 0.35 0
2.5 0.35 0
2.55 0.35 0
2.6 0.35 0
2.65 0.35 0
2.7 0.35 0
2.75 0.35 0
2.8 0.35 0
2.85 0.35 0
2.9 0.35 0
2.95 0.35 0
3 0.35 0
0 0.4 0
0.05 0.4 0
0.1 0.4 0
0.15 0.4 0
0.2 0.4 0
0.25 0.4 0
0.3 0.4 0
0.35 0.4 0
0.4 0.4 0
0.45 0.4 0
0.5 0.4 0
0.55 0.4 0
0.6 0.4 0
0.65 0.4 0
0.7 0.4 0
0.75 0.4 0
0.8 0.4 0
0.85 0.4 0
0.9 0.4 0
0.95 0.4 0
1 0.4 0
1.05 0.4 0
1.1 0.4 0
1.15 0.4 0
1.2 0.4 0
1.25 0.4 0
1.3 0.4 0
1.35 0.4 0
1.4 0.4 0
1.45 0.4 0
1.5 0.4 0
1.55 0.4 0
1.6 0.4 0
1.65 0.4 0
1.7 0.4 0
1.75 0.4 0
1.8 0.4 0
1.85 0.4 0
1.9 0.4 0
1.95 0.4 0
2 0.4 0
2.05 0.4 0
2.1 0.4 0
2.15 0.4 0
2.2 0.4 0
2.25 0.4 0
2.3 0.4 0
2.35 0.4 0
2.4 0.4 0
2.45 0.4 0
2.5 0.4 0
2.55 0.4 0
2.6 0.4 0
2.65 0.4 0
2.7 0.4 0
2.75 0.4 0
2.8 0.4 0
2.85 0.4 0
2.9 0.4 0
2.95 0.4 0
3 0.4 0
0 0.45 0
0.05 0.45 0
0.1 0.45 0
0.15 0.45 0
0.2 0.45 0
0.25 0.45 0
0.3 0.45 0
0.35 0.45 0
0.4 0.45 0
0.45 0.45 0
0.5 0.45 0
0.55 0.45 0
0.6 0.45 0
0.65 0.45 0
0.7 0.45 0
0.75 0.45 0
0.8 0.45 0
0.85 0.45 0
0.9 0.45 0
0.95 0.45 0
1 0.45 0
1.05 0.45 0
1.1 0.45 0
1.15 0.45 0
1.2 0.45 0
1.25 0.45 0
1.3 0.45 0
1.35 0.45 0
1.4 0.45 0
1.45 0.45 0
1.5 0.45 0
1.55 0.45 0
1.6 0.45 0
1.65 0.45 0
1.7 0.45 0
1.75 0.45 0
1.8 0.45 0
1.85 0.45 0
1.9 0.45 0
1.95 0.45 0
2 0.45 0
2.05 0.45 0
2.1 0.45 0
2.15 0.45 0
2.2 0.45 0
2.25 0.45 0
2.3 0.45 0
2.35 0.45 0
2.4 0.45 0
2.45 0.45 0
2.5 0.45 0
2.55 0.45 0
2.6 0.45 0
2.65 0.45 0
2.7 0.45 0
2.75 0.45 0
2.8 0.45 0
2.85 0.45 0
2.9 0.45 0
2.95 0.45 0
3 0.45 0
0 0.5 0
0.05 0.5 0
0.1 0.5 0
0.15 0.5 0
0.2 0.5 0
0.25 0.5 0
0.3 0.5 0
0.35 0.5 0
0.4 0.5 0
0.45 0.5 0
0.5 0.5 0
0.55 0.5 0
0.6 0.5 0
0.65 0.5 0
0.7 0.5 0
0.75 0.5 0
0.8 0.5 0
0.85 0.5 0
0.9 0.5 0
0.95 0.5 0
1 0.5 0
1.05 0.5 0
1.1 0.5 0
1.15 0.5 0
1.2 0.5 0
1.25 0.5 0
1.3 0.5 0
1.35 0.5 0
1.4 0.5 0
1.45 0.5 0
1.5 0.5 0
1.55 0.5 0
1.6 0.5 0
1.65 0.5 0
1.7 0.5 0
1.75 0.5 0
1.8 0.5 0
1.85 0.5 0
1.9 0.5 0
1.95 0.5 0
2 0.5 0
2.05 0.5 0
2.1 0.5 0
2.15 0.5 0
2.2 0.5 0
2.25 0.5 0
2.3 0.5 0
2.35 0.5 0
2.4 0.5 0
2.45 0.5 0
2.5 0.5 0
2.55 0.5 0
2.6 0.5 0
2.65 0.5 0
2.7 0.5 0
2.75 0.5 0
2.8 0.5 0
2.85 0.5 0
2.9 0.5 0
2.95 0.5 0
3 0.5 0
0 0.55 0
0.05 0.55 0
0.1 0.55 0
0.15 0.55 0
0.2 0.55 0
0.25 0.55 0
0.3 0.55 0
0.35 0.55 0
0.4 0.55 0
0.45 0.55 0
0.5 0.55 0
0.55 0.55 0
0.6 0.55 0
0.65 0.55 0
0.7 0.55 0
0.75 0.55 0
0.8 0.55 0
0.85 0.55 0
0.9 0.55 0
0.95 0.55 0
1 0.55 0
1.05 0.55 0
1.1 0.55 0
1.15 0.55 0
1.2 0.55 0
1.25 0.55 0
1.3 0.55 0
1.35 0.55 0
1.4 0.55 0
1.45 0.55 0
1.5 0.55 0
1.55 0.55 0
1.6 0.55 0
1.65 0.55 0
1.7 0.55 0
1.75 0.55 0
1.8 0.55 0
1.85 0.55 0
1.9 0.55 0
1.95 0.55 0
2 0.55 0
2.05 0.55 0
2.1 0.55 0
2.15 0.55 0
2.2 0.55 0
2.25 0.55 0
2.3 0.55 0
2.35 0.55 0
2.4 0.55 0
2.45 0.55 0
2.5 0.55 0
2.55 0.55 0
2.6 0.55 0
2.65 0.55 0
2.7 0.55 0
2.75 0.55 0
2.8 0.55 0
2.85 0.55 0
2.9 0.55 0
2.95 0.55 0
3 0.55 0
0 0.6 0
0.05 0.6 0
0.1 0.6 0
0.15 0.6 0
0.2 0.6 0
0.25 0.6 0
0.3 0.6 0
0.35 0.6 0
0.4 0.6 0
0.45 0.6 0
0.5 0.6 0
0.55 0.6 0
0.6 0.6 0
0.65 0.6 0
0.7 0.6 0
0.75 0.6 0
0.8 0.6 0
0.85 0.6 0
0.9 0.6 0
0.95 0.6 0
1 0.6 0
1.05 0.6 0
1.1 0.6 0
1.15 0.6 0
1.2 0.6 0
1.25 0.6 0
1.3 0.6 0
1.35 0.6 0
1.4 0.6 0
1.45 0.6 0
1.5 0.6 0
1.55 0.6 0
1.6 0.6 0
1.65 0.6 0
1.7 0.6 0
1.75 0.6 0
1.8 0.6 0
1.85 0.6 0
1.9 0.6 0
1.95 0.6 0
2 0.6 0
2.05 0.6 0
2.1 0.6 0
2.15 0.6 0
2.2 0.6 0
2.25 0.6 0
2.3 0.6 0
2.35 0.6 0
2.4 0.6 0
2.45 0.6 0
2.5 0.6 0
2.55 0.6 0
2.6 0.6 0
2.65 0.6 0
2.7 0.6 0
2.75 0.6 0
2.8 0.6 0
2.85 0.6 0
2.9 0.6 0
2.95 0.6 0
3 0.6 0
0 0.65 0
0.05 0.65 0
0.1 0.65 0
0.15 0.65 0
0.2 0.65 0
0.25 0.65 0
0.3 0.65 0
0.35 0.65 0
0.4 0.65 0
0.45 0.65 0
0.5 0.65 0
0.55 0.65 0
0.6 0.65 0
0.65 0.65 0
0.7 0.65 0
0.75 0.65 0
0.8 0.65 0
0.85 0.65 0
0.9 0.65 0
0.95 0.65 0
1 0.65 0
1.05 0.65 0
1.1 0.65 0
1.15 0.65 0
1.2 0.65 0
1.25 0.65 0
1.3 0.65 0
1.35 0.65 0
1.4 0.65 0
1.45 0.65 0
1.5 0.65 0
1.55 0.65 0
1.6 0.65 0
1.65 0.65 0
1.7 0.65 0
1.75 0.65 0
1.8 0.65 0
1.85 0.65 0
1.9 0.65 0
1.95 0.65 0
2 0.65 0
2.05 0.65 0
2.1 0.65 0
2.15 0.65 0
2.2 0.65 0
2.25 0.65 0
2.3 0.65 0
2.35 0.65 0
2.4 0.65 0
2.45 0.65 0
2.5 0.65 0
[...]
POINT_DATA 4331
SCALARS u double
LOOKUP_TABLE default
0
0
0
0
0
0
0
0
0
0
0
0
0
0
0
0
0
0
0
0
0
0
0
0
0
0
0
0
0
0
0
0
0
0
0
0
0
0
0
0
0
0
0
0
0
0
0
0
0
0
0
0
0
0
0
0
0
0
0
0
0
1.66253e-006
1.66253e-006
2.87084e-006
4.06325e-006
5.23295e-006
6.37272e-006
7.47481e-006
8.5309e-006
9.53203e-006
1.04685e-005
1.13301e-005
1.21059e-005
1.27844e-005
1.33537e-005
1.38018e-005
1.41169e-005
1.42876e-005
1.43031e-005
1.41543e-005
1.38337e-005
1.33362e-005
1.26596e-005
1.1805e-005
1.07774e-005
9.58578e-006
8.24324e-006
6.76715e-006
5.17878e-006
3.50284e-006
1.76686e-006
3.58489e-010
-1.76615e-006
-3.50213e-006
-5.17808e-006
-6.76647e-006
-8.24258e-006
-9.58515e-006
-1.07768e-005
-1.18045e-005
-1.2659e-005
-1.33357e-005
-1.38332e-005
-1.41539e-005
-1.43027e-005
-1.42872e-005
-1.41166e-005
-1.38015e-005
-1.33534e-005
-1.27841e-005
-1.21057e-005
-1.133e-005
-1.04684e-005
-9.53191e-006
-8.53081e-006
-7.47473e-006
-6.37265e-006
-5.2329e-006
-4.06321e-006
-2.87082e-006
-1.66252e-006
-1.66252e-006
1.6788e-006
1.6788e-006
2.89828e-006
4.10251e-006
5.2847e-006
6.4377e-006
7.55386e-006
8.62491e-006
9.64193e-006
1.05952e-005
1.14745e-005
1.22685e-005
1.29656e-005
1.35537e-005
1.40203e-005
1.4353e-005
1.45397e-005
1.45691e-005
1.44311e-005
1.41176e-005
1.36227e-005
1.29433e-005
1.20802e-005
1.10377e-005
9.82458e-006
8.45421e-006
6.94428e-006
5.31674e-006
3.59735e-006
1.8149e-006
3.63277e-010
-1.81418e-006
-3.59664e-006
-5.31604e-006
-6.94359e-006
-8.45355e-006
-9.82395e-006
-1.10371e-005
-1.20796e-005
-1.29428e-005
-1.36222e-005
-1.41172e-005
-1.44307e-005
-1.45687e-005
-1.45394e-005
-1.43527e-005
-1.40201e-005
-1.35535e-005
-1.29654e-005
-1.22683e-005
-1.14743e-005
-1.05951e-005
-9.64181e-006
-8.62482e-006
-7.55378e-006
-6.43764e-006
-5.28465e-006
-4.10247e-006
-2.89825e-006
-1.67879e-006
-1.67879e-006
1.70174e-006
1.70174e-006
2.93733e-006
4.15839e-006
5.35845e-006
6.53061e-006
7.66742e-006
8.76076e-006
9.80179e-006
1.07808e-005
1.16874e-005
1.25102e-005
1.32372e-005
1.38556e-005
1.43523e-005
1.47141e-005
1.49278e-005
1.4981e-005
1.48623e-005
1.45622e-005
1.40734e-005
1.33918e-005
1.25168e-005
1.14521e-005
1.02061e-005
8.79222e-006
7.2287e-006
5.53868e-006
3.74959e-006
1.89234e-006
3.69844e-010
-1.89161e-006
-3.74886e-006
-5.53797e-006
-7.228e-006
-8.79155e-006
-1.02055e-005
-1.14515e-005
-1.25162e-005
-1.33912e-005
-1.40729e-005
-1.45617e-005
-1.48619e-005
-1.49806e-005
-1.49275e-005
-1.47138e-005
-1.4352e-005
-1.38553e-005
-1.32369e-005
-1.251e-005
-1.16873e-005
-1.07807e-005
-9.80168e-006
-8.76067e-006
-7.66734e-006
-6.53055e-006
-5.3584e-006
-4.15836e-006
-2.9373e-006
-1.70173e-006
-1.70173e-006
1.73298e-006
1.73298e-006
2.9908e-006
4.23513e-006
5.45992e-006
6.65864e-006
7.82417e-006
8.94862e-006
1.00233e-005
1.10385e-005
1.19837e-005
1.28473e-005
1.36167e-005
1.42785e-005
1.48187e-005
1.52226e-005
1.54759e-005
1.55642e-005
1.54744e-005
1.51949e-005
1.47165e-005
1.40331e-005
1.31425e-005
1.20474e-005
1.07552e-005
9.27949e-006
7.63932e-006
5.85948e-006
3.96983e-006
2.00443e-006
3.79242e-010
-2.00368e-006
-3.96908e-006
-5.85875e-006
-7.63861e-006
-9.27881e-006
-1.07546e-005
-1.20467e-005
-1.3142e-005
-1.40325e-005
-1.4716e-005
-1.51944e-005
-1.54739e-005
-1.55638e-005
-1.54755e-005
-1.52223e-005
-1.48184e-005
-1.42783e-005
-1.36165e-005
-1.28471e-005
-1.19836e-005
-1.10384e-005
-1.00232e-005
-8.94853e-006
-7.8241e-006
-6.65859e-006
-5.45988e-006
-4.2351e-006
-2.99079e-006
-1.73298e-006
-1.73298e-006
1.772e-006
1.772e-006
3.05768e-006
4.33127e-006
5.58726e-006
6.81964e-006
8.02171e-006
9.18593e-006
1.03038e-005
1.13658e-005
1.23612e-005
1.32781e-005
1.41034e-005
1.48226e-005
1.54207e-005
1.58814e-005
1.61882e-005
1.63249e-005
1.62755e-005
1.60258e-005
1.55639e-005
1.4881e-005
1.39725e-005
1.28391e-005
1.14875e-005
9.93083e-006
8.18932e-006
6.28986e-006
4.26565e-006
2.1551e-006
3.9165e-010
-2.15432e-006
-4.26488e-006
-6.28911e-006
-8.18859e-006
-9.93013e-006
-1.14868e-005
-1.28385e-005
-1.39719e-005
-1.48804e-005
-1.55634e-005
-1.60254e-005
-1.62751e-005
-1.63245e-005
-1.61879e-005
-1.58811e-005
-1.54204e-005
-1.48224e-005
-1.41032e-005
-1.3278e-005
-1.23611e-005
-1.13657e-005
-1.03037e-005
-9.18586e-006
-8.02165e-006
-6.8196e-006
-5.58723e-006
-4.33124e-006
-3.05767e-006
-1.772e-006
-1.772e-006
1.81797e-006
1.81797e-006
3.13657e-006
4.44485e-006
5.73803e-006
7.01073e-006
8.25682e-006
9.46925e-006
1.06399e-005
1.17593e-005
1.28168e-005
1.38001e-005
1.46954e-005
1.54874e-005
1.61594e-005
1.66933e-005
1.70702e-005
1.72709e-005
1.72763e-005
1.70685e-005
1.66318e-005
1.59538e-005
1.50267e-005
1.38486e-005
1.24243e-005
1.07667e-005
8.89693e-006
6.84474e-006
4.64764e-006
2.34984e-006
4.07332e-010
-2.34902e-006
-4.64684e-006
-6.84396e-006
-8.89617e-006
-1.07659e-005
-1.24236e-005
-1.38479e-005
-1.50261e-005
-1.59532e-005
-1.66313e-005
-1.7068e-005
-1.72759e-005
-1.72705e-005
-1.70699e-005
-1.6693e-005
-1.61591e-005
-1.54872e-005
-1.46952e-005
-1.38e-005
-1.28167e-005
-1.17592e-005
-1.06398e-005
-9.46919e-006
-8.25677e-006
-7.01069e-006
-5.738e-006
-4.44483e-006
-3.13656e-006
-1.81797e-006
-1.81797e-006
1.86985e-006
1.86985e-006
3.22567e-006
4.57339e-006
5.90907e-006
7.22817e-006
8.5253e-006
9.79404e-006
1.10267e-005
1.22143e-005
1.33461e-005
1.44095e-005
1.53902e-005
1.62717e-005
1.70356e-005
1.76615e-005
1.81278e-005
1.84116e-005
1.84896e-005
1.83393e-005
1.79403e-005
1.72751e-005
1.63315e-005
1.51036e-005
1.35939e-005
1.18142e-005
9.78664e-006
7.54426e-006
5.13013e-006
2.5961e-006
4.26581e-010
-2.59525e-006
-5.1293e-006
-7.54345e-006
-9.78585e-006
-1.18134e-005
-1.35932e-005
-1.51029e-005
-1.63309e-005
-1.72745e-005
-1.79398e-005
-1.83389e-005
-1.84892e-005
-1.84112e-005
-1.81275e-005
-1.76613e-005
-1.70353e-005
-1.62715e-005
-1.53901e-005
-1.44094e-005
-1.3346e-005
-1.22143e-005
-1.10267e-005
-9.79399e-006
-8.52526e-006
-7.22814e-006
-5.90905e-006
-4.57338e-006
-3.22567e-006
-1.86985e-006
-1.86985e-006
1.92631e-006
1.92631e-006
3.32279e-006
4.71381e-006
6.09651e-006
7.46734e-006
8.82187e-006
1.01545e-005
1.14583e-005
1.27247e-005
1.39432e-005
1.51012e-005
1.61837e-005
1.7173e-005
1.8049e-005
1.87888e-005
1.93673e-005
1.97572e-005
1.99304e-005
1.98583e-005
1.95142e-005
1.88742e-005
1.79198e-005
1.66399e-005
1.5033e-005
1.3109e-005
1.08908e-005
8.41523e-006
5.73233e-006
2.90391e-006
4.49764e-010
-2.90301e-006
-5.73144e-006
-8.41437e-006
-1.089e-005
-1.31082e-005
-1.50322e-005
-1.66392e-005
-1.79192e-005
-1.88736e-005
-1.95137e-005
-1.98579e-005
-1.993e-005
-1.97569e-005
-1.9367e-005
-1.87886e-005
-1.80488e-005
-1.71728e-005
-1.61835e-005
-1.51011e-005
-1.39432e-005
-1.27247e-005
-1.14583e-005
-1.01545e-005
-8.82184e-006
-7.46732e-006
-6.0965e-006
-4.71381e-006
-3.32279e-006
-1.92632e-006
-1.92632e-006
1.9858e-006
1.9858e-006
3.42527e-006
4.8624e-006
6.2956e-006
7.72256e-006
9.14001e-006
1.05435e-005
1.19269e-005
1.32826e-005
1.46004e-005
1.58679e-005
1.70696e-005
1.8187e-005
1.91979e-005
2.00768e-005
2.07945e-005
2.1319e-005
2.16155e-005
2.16486e-005
2.13832e-005
2.07869e-005
1.98329e-005
1.85026e-005
1.67886e-005
1.46974e-005
1.2252e-005
9.49318e-006
6.47979e-006
3.28664e-006
4.7725e-010
-3.28569e-006
-6.47886e-006
-9.49227e-006
-1.22511e-005
-1.46966e-005
-1.67878e-005
-1.85019e-005
-1.98323e-005
-2.07863e-005
-2.13827e-005
-2.16482e-005
-2.16152e-005
-2.13186e-005
-2.07943e-005
-2.00766e-005
-1.91977e-005
-1.81868e-005
-1.70695e-005
-1.58678e-005
-1.46003e-005
-1.32825e-005
-1.19269e-005
-1.05434e-005
-9.14e-006
-7.72256e-006
-6.2956e-006
-4.86241e-006
-3.42528e-006
-1.98581e-006
-1.98581e-006
2.04646e-006
2.04646e-006
3.52997e-006
5.01477e-006
6.50074e-006
7.98704e-006
9.47184e-006
1.0952e-005
1.24229e-005
1.38778e-005
1.53074e-005
1.66997e-005
1.80393e-005
1.93067e-005
2.04781e-005
2.15251e-005
2.24143e-005
2.31077e-005
2.35634e-005
2.37367e-005
2.35822e-005
2.30565e-005
2.21215e-005
2.07483e-005
1.89206e-005
1.66394e-005
1.39261e-005
1.08253e-005
7.40675e-006
3.76226e-006
5.09411e-010
-3.76125e-006
-7.40575e-006
-1.08244e-005
-1.39251e-005
-1.66385e-005
-1.89198e-005
-2.07475e-005
-2.21208e-005
-2.30559e-005
-2.35817e-005
-2.37362e-005
-2.3563e-005
-2.31074e-005
-2.2414e-005
-2.15249e-005
-2.0478e-005
-1.93066e-005
-1.80392e-005
-1.66997e-005
-1.53074e-005
-1.38777e-005
-1.24229e-005
-1.0952e-005
-9.47184e-006
-7.98704e-006
-6.50075e-006
-5.01478e-006
-3.52999e-006
-2.04648e-006
-2.04648e-006
2.10616e-006
2.10616e-006
3.63329e-006
5.16581e-006
6.70533e-006
8.25274e-006
9.80794e-006
1.13696e-005
1.29345e-005
1.44977e-005
1.60511e-005
1.75838e-005
1.90805e-005
2.05217e-005
2.1882e-005
2.31304e-005
2.42289e-005
2.51333e-005
2.57927e-005
2.61515e-005
2.61514e-005
2.57344e-005
2.48476e-005
2.34474e-005
2.15055e-005
1.9013e-005
1.59869e-005
1.24749e-005
8.5593e-006
4.35499e-006
5.46482e-010
-4.3539e-006
-8.55822e-006
-1.24739e-005
-1.59859e-005
-1.9012e-005
-2.15046e-005
-2.34466e-005
-2.48469e-005
-2.57338e-005
-2.61509e-005
-2.61511e-005
-2.57923e-005
-2.5133e-005
-2.42287e-005
-2.31302e-005
-2.18819e-005
-2.05216e-005
-1.90805e-005
-1.75837e-005
-1.60511e-005
-1.44977e-005
-1.29345e-005
-1.13696e-005
-9.80797e-006
-8.25276e-006
-6.70536e-006
-5.16584e-006
-3.63331e-006
-2.10618e-006
-2.10618e-006
2.16248e-006
2.16248e-006
3.7311e-006
5.3097e-006
6.90183e-006
8.51038e-006
1.01373e-005
1.17833e-005
1.34475e-005
1.51268e-005
1.68151e-005
1.8503e-005
2.01767e-005
2.18166e-005
2.33971e-005
2.48846e-005
2.62369e-005
2.74028e-005
2.83215e-005
2.89243e-005
2.91364e-005
2.88812e-005
2.80859e-005
2.66875e-005
2.46399e-005
2.19194e-005
1.85329e-005
1.45276e-005
1.00002e-005
5.09767e-006
5.88421e-010
-5.0965e-006
-9.99902e-006
-1.45265e-005
-1.85318e-005
-2.19184e-005
-2.46389e-005
-2.66867e-005
-2.80851e-005
-2.88806e-005
-2.91359e-005
-2.89239e-005
-2.83212e-005
-2.74025e-005
-2.62367e-005
-2.48845e-005
-2.3397e-005
-2.18166e-005
-2.01766e-005
-1.8503e-005
-1.68151e-005
-1.51268e-005
-1.34476e-005
-1.17834e-005
-1.01374e-005
-8.51042e-006
-6.90187e-006
-5.30973e-006
-3.73113e-006
-2.16251e-006
-2.16251e-006
2.21273e-006
2.21273e-006
3.81881e-006
5.43989e-006
7.08169e-006
8.74935e-006
1.04472e-005
1.21786e-005
1.39451e-005
1.57462e-005
1.75788e-005
1.94359e-005
2.13057e-005
2.31704e-005
2.50044e-005
2.67729e-005
2.84303e-005
2.99183e-005
3.11652e-005
3.20867e-005
3.25876e-005
3.2567e-005
3.1926e-005
3.05758e-005
2.84461e-005
2.54909e-005
2.16971e-005
1.71019e-005
1.18157e-005
6.03471e-006
6.34482e-010
-6.03344e-006
-1.18145e-005
-1.71007e-005
-2.16959e-005
-2.54898e-005
-2.84451e-005
-3.05749e-005
-3.19252e-005
-3.25664e-005
-3.25871e-005
-3.20863e-005
-3.1165e-005
-2.99181e-005
-2.84302e-005
-2.67729e-005
-2.50043e-005
-2.31704e-005
-2.13057e-005
-1.9436e-005
-1.75789e-005
-1.57463e-005
-1.39451e-005
-1.21787e-005
-1.04473e-005
-8.74942e-006
-7.08175e-006
-5.43994e-006
-3.81885e-006
-2.21277e-006
-2.21277e-006
2.25397e-006
2.25397e-006
3.89141e-006
5.54922e-006
7.23547e-006
8.95784e-006
1.07234e-005
1.25383e-005
1.44074e-005
1.63337e-005
1.83175e-005
2.03554e-005
2.24391e-005
2.45539e-005
2.66761e-005
2.87715e-005
3.07921e-005
3.26736e-005
3.43332e-005
3.56684e-005
3.65588e-005
3.6872e-005
3.64739e-005
3.52423e-005
3.30767e-005
2.99e-005
2.56615e-005
2.03665e-005
1.41256e-005
7.22455e-006
6.82528e-010
-7.22319e-006
-1.41242e-005
-2.03652e-005
-2.56602e-005
-2.98988e-005
-3.30756e-005
-3.52414e-005
-3.64731e-005
-3.68714e-005
-3.65583e-005
-3.56681e-005
-3.4333e-005
-3.26735e-005
-3.07921e-005
-2.87715e-005
-2.66762e-005
-2.45539e-005
-2.24392e-005
-2.03555e-005
-1.83176e-005
-1.63338e-005
-1.44075e-005
-1.25384e-005
-1.07235e-005
-8.95792e-006
-7.23555e-006
-5.54929e-006
-3.89146e-006
-2.25402e-006
-2.25402e-006
2.28309e-006
2.28309e-006
3.94353e-006
5.62995e-006
7.35293e-006
9.12286e-006
1.09498e-005
1.28434e-005
1.48122e-005
1.68632e-005
1.90014e-005
2.12284e-005
2.35408e-005
2.59289e-005
2.83737e-005
3.08438e-005
3.32918e-005
3.56497e-005
3.78242e-005
3.96934e-005
4.11058e-005
4.18867e-005
4.1854e-005
4.08414e-005
3.87169e-005
3.53697e-005
3.06815e-005
2.45763e-005
1.70949e-005
8.73696e-006
7.27464e-010
-8.73549e-006
-1.70934e-005
-2.45748e-005
-3.068e-005
-3.53683e-005
-3.87156e-005
-4.08404e-005
-4.18531e-005
-4.18861e-005
-4.11054e-005
-3.96931e-005
-3.78241e-005
-3.56496e-005
-3.32918e-005
-3.08439e-005
-2.83738e-005
-2.59291e-005
-2.3541e-005
-2.12285e-005
-1.90016e-005
-1.68633e-005
-1.48123e-005
-1.28435e-005
-1.095e-005
-9.12296e-006
-7.35302e-006
-5.63003e-006
-3.94359e-006
-2.28314e-006
-2.28314e-006
2.29681e-006
2.29681e-006
3.96957e-006
5.67399e-006
7.42322e-006
9.23057e-006
1.11094e-005
1.30729e-005
1.51341e-005
1.7305e-005
1.9596e-005
2.20151e-005
2.4566e-005
2.72465e-005
3.00449e-005
3.2937e-005
3.58803e-005
3.88076e-005
4.16191e-005
4.41736e-005
4.62826e-005
4.77135e-005
4.8212e-005
4.75509e-005
4.55781e-005
4.2179e-005
3.71172e-005
3.01612e-005
2.09401e-005
1.06273e-005
7.57908e-010
-1.06257e-005
-2.09384e-005
-3.01595e-005
-3.71154e-005
-4.21773e-005
-4.55767e-005
-4.75497e-005
-4.82111e-005
-4.77129e-005
-4.62823e-005
-4.41734e-005
-4.16191e-005
-3.88077e-005
-3.58805e-005
-3.29372e-005
-3.00452e-005
-2.72467e-005
-2.45663e-005
-2.20153e-005
-1.95962e-005
-1.73052e-005
-1.51343e-005
-1.30731e-005
-1.11095e-005
-9.23069e-006
-7.42333e-006
-5.67408e-006
-3.96964e-006
-2.29687e-006
-2.29687e-006
2.29186e-006
2.29186e-006
3.96385e-006
5.67305e-006
7.4352e-006
9.26655e-006
1.11839e-005
1.32044e-005
1.53459e-005
1.7626e-005
2.00619e-005
2.26692e-005
2.54609e-005
2.8445e-005
3.16214e-005
3.49778e-005
3.84834e-005
4.20799e-005
4.56694e-005
4.90975e-005
5.21357e-005
5.44705e-005
5.57275e-005
5.55699e-005
5.38639e-005
5.06491e-005
4.54454e-005
3.80101e-005
2.5876e-005
1.2831e-005
7.47647e-010
-1.28294e-005
-2.58742e-005
-3.80081e-005
-4.54434e-005
-5.06472e-005
-5.38622e-005
-5.55686e-005
-5.57266e-005
-5.447e-005
-5.21355e-005
-4.90975e-005
-4.56695e-005
-4.20802e-005
-3.84837e-005
-3.49782e-005
-3.16218e-005
-2.84453e-005
-2.54612e-005
-2.26695e-005
-2.00621e-005
-1.76262e-005
-1.53461e-005
-1.32046e-005
-1.1184e-005
-9.26669e-006
-7.43532e-006
-5.67315e-006
-3.96394e-006
-2.29193e-006
-2.29193e-006
2.26505e-006
2.26505e-006
3.92085e-006
5.61902e-006
7.3778e-006
9.21632e-006
1.11548e-005
1.32147e-005
1.54187e-005
1.77908e-005
2.03556e-005
2.31382e-005
2.61626e-005
2.94502e-005
3.30168e-005
3.68682e-005
4.09942e-005
4.53577e-005
4.98791e-005
5.44094e-005
5.86901e-005
6.23032e-005
6.46554e-005
6.51351e-005
6.3656e-005
6.11061e-005
5.60034e-005
5.05556e-005
3.17206e-005
1.48186e-005
6.2975e-010
-1.48171e-005
-3.17186e-005
-5.05532e-005
-5.60008e-005
-6.11036e-005
-6.3654e-005
-6.51337e-005
-6.46545e-005
-6.23028e-005
-5.869e-005
-5.44096e-005
-4.98794e-005
-4.53582e-005
-4.09947e-005
-3.68687e-005
-3.30172e-005
-2.94507e-005
-2.6163e-005
-2.31386e-005
-2.03559e-005
-1.7791e-005
-1.54189e-005
-1.32149e-005
-1.1155e-005
-9.21648e-006
-7.37794e-006
-5.61913e-006
-3.92094e-006
-2.26513e-006
-2.26513e-006
2.21342e-006
2.21342e-006
3.83538e-006
5.50424e-006
7.24048e-006
9.06591e-006
1.10041e-005
1.30805e-005
1.5323e-005
1.77622e-005
2.0431e-005
2.33647e-005
2.66003e-005
3.01755e-005
3.41261e-005
3.84827e-005
4.32658e-005
4.84759e-005
5.40779e-005
5.99687e-005
6.59096e-005
7.13942e-005
7.5453e-005
7.66562e-005
7.4516e-005
7.41131e-005
6.68842e-005
7.5996e-005
3.50867e-005
1.4383e-005
1.49923e-010
-1.43828e-005
-3.50864e-005
-7.59942e-005
-6.68811e-005
-7.41096e-005
-7.45137e-005
-7.66547e-005
-7.54522e-005
-7.13939e-005
-6.59098e-005
-5.99692e-005
-5.40786e-005
-4.84766e-005
-4.32665e-005
-3.84834e-005
-3.41267e-005
-3.01761e-005
-2.66008e-005
-2.33651e-005
-2.04313e-005
-1.77625e-005
-1.53233e-005
-1.30807e-005
-1.10043e-005
-9.06609e-006
-7.24063e-006
-5.50437e-006
-3.83549e-006
-2.21351e-006
-2.21351e-006
2.1344e-006
2.1344e-006
3.70296e-006
5.32198e-006
7.01382e-006
8.8026e-006
1.07148e-005
1.27797e-005
1.50304e-005
1.75036e-005
2.02408e-005
2.32884e-005
2.66977e-005
3.05245e-005
3.48281e-005
3.96695e-005
4.51087e-005
5.12002e-005
5.79859e-005
6.54755e-005
7.35827e-005
8.1908e-005
8.91031e-005
9.15175e-005
8.36126e-005
9.37945e-005
6.29125e-005
6.83138e-005
3.02168e-005
1.27429e-005
-2.83272e-010
-1.27446e-005
-3.02215e-005
-6.83224e-005
-6.29226e-005
-9.37992e-005
-8.36124e-005
-9.15161e-005
-8.91024e-005
-8.19081e-005
-7.35833e-005
-6.54765e-005
-5.79869e-005
-5.12013e-005
-4.51097e-005
-3.96704e-005
-3.48288e-005
-3.05251e-005
-2.66983e-005
-2.32889e-005
-2.02412e-005
-1.75039e-005
-1.50307e-005
-1.278e-005
-1.0715e-005
-8.80279e-006
-7.01399e-006
-5.32212e-006
-3.70307e-006
-2.13449e-006
-2.13449e-006
2.02597e-006
2.02597e-006
3.52e-006
5.06683e-006
6.69011e-006
8.41572e-006
1.02725e-005
1.22931e-005
1.45148e-005
1.69804e-005
1.97397e-005
2.28499e-005
2.63768e-005
3.03956e-005
3.4991e-005
4.02571e-005
4.62977e-005
5.32285e-005
6.11875e-005
7.03622e-005
8.10347e-005
9.35487e-005
0.000107532
0.000116765
7.60598e-005
7.84787e-005
3.37674e-005
-1.14836e-005
1.19763e-005
9.65133e-006
5.72251e-010
-9.65114e-006
-1.19789e-005
1.14753e-005
-3.3783e-005
-7.85015e-005
-7.60799e-005
-0.000116775
-0.000107532
-9.35492e-005
-8.1036e-005
-7.03637e-005
-6.11891e-005
-5.323e-005
-4.6299e-005
-4.02582e-005
-3.49919e-005
-3.03964e-005
-2.63775e-005
-2.28504e-005
-1.97402e-005
-1.69808e-005
-1.45151e-005
-1.22934e-005
-1.02727e-005
-8.41592e-006
-6.69027e-006
-5.06697e-006
-3.52012e-006
-2.02607e-006
-2.02607e-006
1.88686e-006
1.88686e-006
3.28422e-006
4.73515e-006
6.26396e-006
7.89753e-006
9.66628e-006
1.16051e-005
1.37549e-005
1.61634e-005
1.88873e-005
2.19941e-005
2.55634e-005
2.96893e-005
3.44821e-005
4.0069e-005
4.65949e-005
5.42267e-005
6.31711e-005
7.37481e-005
8.66419e-005
0.000103719
0.000131516
0.000104085
5.10292e-005
3.88216e-006
6.15553e-006
-4.22715e-005
-3.46381e-006
3.46529e-006
2.43136e-009
-3.46042e-006
3.46889e-006
4.22758e-005
-6.15543e-006
-3.89537e-006
-5.10565e-005
-0.000104107
-0.000131523
-0.00010372
-8.66443e-005
-7.37506e-005
-6.31733e-005
-5.42286e-005
-4.65965e-005
-4.00702e-005
-3.44832e-005
-2.96902e-005
-2.5564e-005
-2.19946e-005
-1.88878e-005
-1.61637e-005
-1.37552e-005
-1.16054e-005
-9.66651e-006
-7.89774e-006
-6.26413e-006
-4.7353e-006
-3.28435e-006
-1.88697e-006
-1.88697e-006
1.7167e-006
1.7167e-006
2.99484e-006
4.32556e-006
5.73299e-006
7.24411e-006
8.88981e-006
1.07062e-005
1.2736e-005
1.50305e-005
1.76518e-005
2.06752e-005
2.41925e-005
2.83154e-005
3.31782e-005
3.89404e-005
4.57846e-005
5.39102e-005
6.35195e-005
7.48144e-005
8.80634e-005
0.000103894
0.000125984
3.41936e-005
3.70778e-005
-1.98756e-005
-1.03505e-006
-1.23472e-005
-4.78738e-006
-5.81454e-007
4.30543e-009
5.90187e-007
4.79647e-006