# vtk DataFile Version 3.0
vtk output
ASCII
DATASET STRUCTURED_GRID
DIMENSIONS 61 71 1
POINTS 4331 double
0 0 0
0.05 0 0
0.1 0 0
0.15 0 0
0.2 0 0
0.25 0 0
0.3 0 0
0.35 0 0
0.4 0 0
0.45 0 0
0.5 0 0
0.55 0 0
0.6 0 0
0.65 0 0
0.7 0 0
0.75 0 0
0.8 0 0
0.85 0 0
0.9 0 0
0.95 0 0
1 0 0
1.05 0 0
1.1 0 0
1.15 0 0
1.2 0 0
1.25 0 0
1.3 0 0
1.35 0 0
1.4 0 0
1.45 0 0
1.5 0 0
1.55 0 0
1.6 0 0
1.65 0 0
1.7 0 0
1.75 0 0
1.8 0 0
1.85 0 0
1.9 0 0
1.95 0 0
2 0 0
2.05 0 0
2.1 0 0
2.15 0 0
2.2 0 0
2.25 0 0
2.3 0 0
2.35 0 0
2.4 0 0
2.45 0 0
2.5 0 0
2.55 0 0
2.6 0 0
2.65 0 0
2.7 0 0
2.75 0 0
2.8 0 0
2.85 0 0
2.9 0 0
2.95 0 0
3 0 0
0 0.05 0
0.05 0.05 0
0.1 0.05 0
0.15 0.05 0
0.2 0.05 0
0.25 0.05 0
0.3 0.05 0
0.35 0.05 0
0.4 0.05 0
0.45 0.05 0
0.5 0.05 0
0.55 0.05 0
0.6 0.05 0
0.65 0.05 0
0.7 0.05 0
0.75 0.05 0
0.8 0.05 0
0.85 0.05 0
0.9 0.05 0
0.95 0.05 0
1 0.05 0
1.05 0.05 0
1.1 0.05 0
1.15 0.05 0
1.2 0.05 0
1.25 0.05 0
1.3 0.05 0
1.35 0.05 0
1.4 0.05 0
1.45 0.05 0
1.5 0.05 0
1.55 0.05 0
1.6 0.05 0
1.65 0.05 0
1.7 0.05 0
1.75 0.05 0
1.8 0.05 0
1.85 0.05 0
1.9 0.05 0
1.95 0.05 0
2 0.05 0
2.05 0.05 0
2.1 0.05 0
2.15 0.05 0
2.2 0.05 0
2.25 0.05 0
2.3 0.05 0
2.35 0.05 0
2.4 0.05 0
2.45 0.05 0
2.5 0.05 0
2.55 0.05 0
2.6 0.05 0
2.65 0.05 0
2.7 0.05 0
2.75 0.05 0
2.8 0.05 0
2.85 0.05 0
2.9 0.05 0
2.95 0.05 0
3 0.05 0
0 0.1 0
0.05 0.1 0
0.1 0.1 0
0.15 0.1 0
0.2 0.1 0
0.25 0.1 0
0.3 0.1 0
0.35 0.1 0
0.4 0.1 0
0.45 0.1 0
0.5 0.1 0
0.55 0.1 0
0.6 0.1 0
0.65 0.1 0
0.7 0.1 0
0.75 0.1 0
0.8 0.1 0
0.85 0.1 0
0.9 0.1 0
0.95 0.1 0
1 0.1 0
1.05 0.1 0
1.1 0.1 0
1.15 0.1 0
1.2 0.1 0
1.25 0.1 0
1.3 0.1 0
1.35 0.1 0
1.4 0.1 0
1.45 0.1 0
1.5 0.1 0
1.55 0.1 0
1.6 0.1 0
1.65 0.1 0
1.7 0.1 0
1.75 0.1 0
1.8 0.1 0
1.85 0.1 0
1.9 0.1 0
1.95 0.1 0
2 0.1 0
2.05 0.1 0
2.1 0.1 0
2.15 0.1 0
2.2 0.1 0
2.25 0.1 0
2.3 0.1 0
2.35 0.1 0
2.4 0.1 0
2.45 0.1 0
2.5 0.1 0
2.55 0.1 0
2.6 0.1 0
2.65 0.1 0
2.7 0.1 0
2.75 0.1 0
2.8 0.1 0
2.85 0.1 0
2.9 0.1 0
2.95 0.1 0
3 0.1 0
0 0.15 0
0.05 0.15 0
0.1 0.15 0
0.15 0.15 0
0.2 0.15 0
0.25 0.15 0
0.3 0.15 0
0.35 0.15 0
0.4 0.15 0
0.45 0.15 0
0.5 0.15 0
0.55 0.15 0
0.6 0.15 0
0.65 0.15 0
0.7 0.15 0
0.75 0.15 0
0.8 0.15 0
0.85 0.15 0
0.9 0.15 0
0.95 0.15 0
1 0.15 0
1.05 0.15 0
1.1 0.15 0
1.15 0.15 0
1.2 0.15 0
1.25 0.15 0
1.3 0.15 0
1.35 0.15 0
1.4 0.15 0
1.45 0.15 0
1.5 0.15 0
1.55 0.15 0
1.6 0.15 0
1.65 0.15 0
1.7 0.15 0
1.75 0.15 0
1.8 0.15 0
1.85 0.15 0
1.9 0.15 0
1.95 0.15 0
2 0.15 0
2.05 0.15 0
2.1 0.15 0
2.15 0.15 0
2.2 0.15 0
2.25 0.15 0
2.3 0.15 0
2.35 0.15 0
2.4 0.15 0
2.45 0.15 0
2.5 0.15 0
2.55 0.15 0
2.6 0.15 0
2.65 0.15 0
2.7 0.15 0
2.75 0.15 0
2.8 0.15 0
2.85 0.15 0
2.9 0.15 0
2.95 0.15 0
3 0.15 0
0 0.2 0
0.05 0.2 0
0.1 0.2 0
0.15 0.2 0
0.2 0.2 0
0.25 0.2 0
0.3 0.2 0
0.35 0.2 0
0.4 0.2 0
0.45 0.2 0
0.5 0.2 0
0.55 0.2 0
0.6 0.2 0
0.65 0.2 0
0.7 0.2 0
0.75 0.2 0
0.8 0.2 0
0.85 0.2 0
0.9 0.2 0
0.95 0.2 0
1 0.2 0
1.05 0.2 0
1.1 0.2 0
1.15 0.2 0
1.2 0.2 0
1.25 0.2 0
1.3 0.2 0
1.35 0.2 0
1.4 0.2 0
1.45 0.2 0
1.5 0.2 0
1.55 0.2 0
1.6 0.2 0
1.65 0.2 0
1.7 0.2 0
1.75 0.2 0
1.8 0.2 0
1.85 0.2 0
1.9 0.2 0
1.95 0.2 0
2 0.2 0
2.05 0.2 0
2.1 0.2 0
2.15 0.2 0
2.2 0.2 0
2.25 0.2 0
2.3 0.2 0
2.35 0.2 0
2.4 0.2 0
2.45 0.2 0
2.5 0.2 0
2.55 0.2 0
2.6 0.2 0
2.65 0.2 0
2.7 0.2 0
2.75 0.2 0
2.8 0.2 0
2.85 0.2 0
2.9 0.2 0
2.95 0.2 0
3 0.2 0
0 0.25 0
0.05 0.25 0
0.1 0.25 0
0.15 0.25 0
0.2 0.25 0
0.25 0.25 0
0.3 0.25 0
0.35 0.25 0
0.4 0.25 0
0.45 0.25 0
0.5 0.25 0
0.55 0.25 0
0.6 0.25 0
0.65 0.25 0
0.7 0.25 0
0.75 0.25 0
0.8 0.25 0
0.85 0.25 0
0.9 0.25 0
0.95 0.25 0
1 0.25 0
1.05 0.25 0
1.1 0.25 0
1.15 0.25 0
1.2 0.25 0
1.25 0.25 0
1.3 0.25 0
1.35 0.25 0
1.4 0.25 0
1.45 0.25 0
1.5 0.25 0
1.55 0.25 0
1.6 0.25 0
1.65 0.25 0
1.7 0.25 0
1.75 0.25 0
1.8 0.25 0
1.85 0.25 0
1.9 0.25 0
1.95 0.25 0
2 0.25 0
2.05 0.25 0
2.1 0.25 0
2.15 0.25 0
2.2 0.25 0
2.25 0.25 0
2.3 0.25 0
2.35 0.25 0
2.4 0.25 0
2.45 0.25 0
2.5 0.25 0
2.55 0.25 0
2.6 0.25 0
2.65 0.25 0
2.7 0.25 0
2.75 0.25 0
2.8 0.25 0
2.85 0.25 0
2.9 0.25 0
2.95 0.25 0
3 0.25 0
0 0.3 0
0.05 0.3 0
0.1 0.3 0
0.15 0.3 0
0.2 0.3 0
0.25 0.3 0
0.3 0.3 0
0.35 0.3 0
0.4 0.3 0
0.45 0.3 0
0.5 0.3 0
0.55 0.3 0
0.6 0.3 0
0.65 0.3 0
0.7 0.3 0
0.75 0.3 0
0.8 0.3 0
0.85 0.3 0
0.9 0.3 0
0.95 0.3 0
1 0.3 0
1.05 0.3 0
1.1 0.3 0
1.15 0.3 0
1.2 0.3 0
1.25 0.3 0
1.3 0.3 0
1.35 0.3 0
1.4 0.3 0
1.45 0.3 0
1.5 0.3 0
1.55 0.3 0
1.6 0.3 0
1.65 0.3 0
1.7 0.3 0
1.75 0.3 0
1.8 0.3 0
1.85 0.3 0
1.9 0.3 0
1.95 0.3 0
2 0.3 0
2.05 0.3 0
2.1 0.3 0
2.15 0.3 0
2.2 0.3 0
2.25 0.3 0
2.3 0.3 0
2.35 0.3 0
2.4 0.3 0
2.45 0.3 0
2.5 0.3 0
2.55 0.3 0
2.6 0.3 0
2.65 0.3 0
2.7 0.3 0
2.75 0.3 0
2.8 0.3 0
2.85 0.3 0
2.9 0.3 0
2.95 0.3 0
3 0.3 0
0 0.35 0
0.05 0.35 0
0.1 0.35 0
0.15 0.35 0
0.2 0.35 0
0.25 0.35 0
0.3 0.35 0
0.35 0.35 0
0.4 0.35 0
0.45 0.35 0
0.5 0.35 0
0.55 0.35 0
0.6 0.35 0
0.65 0.35 0
0.7 0.35 0
0.75 0.35 0
0.8 0.35 0
0.85 0.35 0
0.9 0.35 0
0.95 0.35 0
1 0.35 0
1.05 0.35 0
1.1 0.35 0
1.15 0.35 0
1.2 0.35 0
1.25 0.35 0
1.3 0.35 0
1.35 0.35 0
1.4 0.35 0
1.45 0.35 0
1.5 0.35 0
1.55 0.35 0
1.6 0.35 0
1.65 0.35 0
1.7 0.35 0
1.75 0.35 0
1.8 0.35 0
1.85 0.35 0
1.9 0.35 0
1.95 0.35 0
2 0.35 0
2.05 0.35 0
2.1 0.35 0
2.15 0.35 0
2.2 0.35 0
2.25 0.35 0
2.3 0.35 0
2.35 0.35 0
2.4 0.35 0
2.45 0.35 0
2.5 0.35 0
2.55 0.35 0
2.6 0.35 0
2.65 0.35 0
2.7 0.35 0
2.75 0.35 0
2.8 0.35 0
2.85 0.35 0
2.9 0.35 0
2.95 0.35 0
3 0.35 0
0 0.4 0
0.05 0.4 0
0.1 0.4 0
0.15 0.4 0
0.2 0.4 0
0.25 0.4 0
0.3 0.4 0
0.35 0.4 0
0.4 0.4 0
0.45 0.4 0
0.5 0.4 0
0.55 0.4 0
0.6 0.4 0
0.65 0.4 0
0.7 0.4 0
0.75 0.4 0
0.8 0.4 0
0.85 0.4 0
0.9 0.4 0
0.95 0.4 0
1 0.4 0
1.05 0.4 0
1.1 0.4 0
1.15 0.4 0
1.2 0.4 0
1.25 0.4 0
1.3 0.4 0
1.35 0.4 0
1.4 0.4 0
1.45 0.4 0
1.5 0.4 0
1.55 0.4 0
1.6 0.4 0
1.65 0.4 0
1.7 0.4 0
1.75 0.4 0
1.8 0.4 0
1.85 0.4 0
1.9 0.4 0
1.95 0.4 0
2 0.4 0
2.05 0.4 0
2.1 0.4 0
2.15 0.4 0
2.2 0.4 0
2.25 0.4 0
2.3 0.4 0
2.35 0.4 0
2.4 0.4 0
2.45 0.4 0
2.5 0.4 0
2.55 0.4 0
2.6 0.4 0
2.65 0.4 0
2.7 0.4 0
2.75 0.4 0
2.8 0.4 0
2.85 0.4 0
2.9 0.4 0
2.95 0.4 0
3 0.4 0
0 0.45 0
0.05 0.45 0
0.1 0.45 0
0.15 0.45 0
0.2 0.45 0
0.25 0.45 0
0.3 0.45 0
0.35 0.45 0
0.4 0.45 0
0.45 0.45 0
0.5 0.45 0
0.55 0.45 0
0.6 0.45 0
0.65 0.45 0
0.7 0.45 0
0.75 0.45 0
0.8 0.45 0
0.85 0.45 0
0.9 0.45 0
0.95 0.45 0
1 0.45 0
1.05 0.45 0
1.1 0.45 0
1.15 0.45 0
1.2 0.45 0
1.25 0.45 0
1.3 0.45 0
1.35 0.45 0
1.4 0.45 0
1.45 0.45 0
1.5 0.45 0
1.55 0.45 0
1.6 0.45 0
1.65 0.45 0
1.7 0.45 0
1.75 0.45 0
1.8 0.45 0
1.85 0.45 0
1.9 0.45 0
1.95 0.45 0
2 0.45 0
2.05 0.45 0
2.1 0.45 0
2.15 0.45 0
2.2 0.45 0
2.25 0.45 0
2.3 0.45 0
2.35 0.45 0
2.4 0.45 0
2.45 0.45 0
2.5 0.45 0
2.55 0.45 0
2.6 0.45 0
2.65 0.45 0
2.7 0.45 0
2.75 0.45 0
2.8 0.45 0
2.85 0.45 0
2.9 0.45 0
2.95 0.45 0
3 0.45 0
0 0.5 0
0.05 0.5 0
0.1 0.5 0
0.15 0.5 0
0.2 0.5 0
0.25 0.5 0
0.3 0.5 0
0.35 0.5 0
0.4 0.5 0
0.45 0.5 0
0.5 0.5 0
0.55 0.5 0
0.6 0.5 0
0.65 0.5 0
0.7 0.5 0
0.75 0.5 0
0.8 0.5 0
0.85 0.5 0
0.9 0.5 0
0.95 0.5 0
1 0.5 0
1.05 0.5 0
1.1 0.5 0
1.15 0.5 0
1.2 0.5 0
1.25 0.5 0
1.3 0.5 0
1.35 0.5 0
1.4 0.5 0
1.45 0.5 0
1.5 0.5 0
1.55 0.5 0
1.6 0.5 0
1.65 0.5 0
1.7 0.5 0
1.75 0.5 0
1.8 0.5 0
1.85 0.5 0
1.9 0.5 0
1.95 0.5 0
2 0.5 0
2.05 0.5 0
2.1 0.5 0
2.15 0.5 0
2.2 0.5 0
2.25 0.5 0
2.3 0.5 0
2.35 0.5 0
2.4 0.5 0
2.45 0.5 0
2.5 0.5 0
2.55 0.5 0
2.6 0.5 0
2.65 0.5 0
2.7 0.5 0
2.75 0.5 0
2.8 0.5 0
2.85 0.5 0
2.9 0.5 0
2.95 0.5 0
3 0.5 0
0 0.55 0
0.05 0.55 0
0.1 0.55 0
0.15 0.55 0
0.2 0.55 0
0.25 0.55 0
0.3 0.55 0
0.35 0.55 0
0.4 0.55 0
0.45 0.55 0
0.5 0.55 0
0.55 0.55 0
0.6 0.55 0
0.65 0.55 0
0.7 0.55 0
0.75 0.55 0
0.8 0.55 0
0.85 0.55 0
0.9 0.55 0
0.95 0.55 0
1 0.55 0
1.05 0.55 0
1.1 0.55 0
1.15 0.55 0
1.2 0.55 0
1.25 0.55 0
1.3 0.55 0
1.35 0.55 0
1.4 0.55 0
1.45 0.55 0
1.5 0.55 0
1.55 0.55 0
1.6 0.55 0
1.65 0.55 0
1.7 0.55 0
1.75 0.55 0
1.8 0.55 0
1.85 0.55 0
1.9 0.55 0
1.95 0.55 0
2 0.55 0
2.05 0.55 0
2.1 0.55 0
2.15 0.55 0
2.2 0.55 0
2.25 0.55 0
2.3 0.55 0
2.35 0.55 0
2.4 0.55 0
2.45 0.55 0
2.5 0.55 0
2.55 0.55 0
2.6 0.55 0
2.65 0.55 0
2.7 0.55 0
2.75 0.55 0
2.8 0.55 0
2.85 0.55 0
2.9 0.55 0
2.95 0.55 0
3 0.55 0
0 0.6 0
0.05 0.6 0
0.1 0.6 0
0.15 0.6 0
0.2 0.6 0
0.25 0.6 0
0.3 0.6 0
0.35 0.6 0
0.4 0.6 0
0.45 0.6 0
0.5 0.6 0
0.55 0.6 0
0.6 0.6 0
0.65 0.6 0
0.7 0.6 0
0.75 0.6 0
0.8 0.6 0
0.85 0.6 0
0.9 0.6 0
0.95 0.6 0
1 0.6 0
1.05 0.6 0
1.1 0.6 0
1.15 0.6 0
1.2 0.6 0
1.25 0.6 0
1.3 0.6 0
1.35 0.6 0
1.4 0.6 0
1.45 0.6 0
1.5 0.6 0
1.55 0.6 0
1.6 0.6 0
1.65 0.6 0
1.7 0.6 0
1.75 0.6 0
1.8 0.6 0
1.85 0.6 0
1.9 0.6 0
1.95 0.6 0
2 0.6 0
2.05 0.6 0
2.1 0.6 0
2.15 0.6 0
2.2 0.6 0
2.25 0.6 0
2.3 0.6 0
2.35 0.6 0
2.4 0.6 0
2.45 0.6 0
2.5 0.6 0
2.55 0.6 0
2.6 0.6 0
2.65 0.6 0
2.7 0.6 0
2.75 0.6 0
2.8 0.6 0
2.85 0.6 0
2.9 0.6 0
2.95 0.6 0
3 0.6 0
0 0.65 0
0.05 0.65 0
0.1 0.65 0
0.15 0.65 0
0.2 0.65 0
0.25 0.65 0
0.3 0.65 0
0.35 0.65 0
0.4 0.65 0
0.45 0.65 0
0.5 0.65 0
0.55 0.65 0
0.6 0.65 0
0.65 0.65 0
0.7 0.65 0
0.75 0.65 0
0.8 0.65 0
0.85 0.65 0
0.9 0.65 0
0.95 0.65 0
1 0.65 0
1.05 0.65 0
1.1 0.65 0
1.15 0.65 0
1.2 0.65 0
1.25 0.65 0
1.3 0.65 0
1.35 0.65 0
1.4 0.65 0
1.45 0.65 0
1.5 0.65 0
1.55 0.65 0
1.6 0.65 0
1.65 0.65 0
1.7 0.65 0
1.75 0.65 0
1.8 0.65 0
1.85 0.65 0
1.9 0.65 0
1.95 0.65 0
2 0.65 0
2.05 0.65 0
2.1 0.65 0
2.15 0.65 0
2.2 0.65 0
2.25 0.65 0
2.3 0.65 0
2.35 0.65 0
2.4 0.65 0
2.45 0.65 0
2.5 0.65 0
[...]
POINT_DATA 4331
SCALARS u double
LOOKUP_TABLE default
0
0
0
0
0
0
0
0
0
0
0
0
0
0
0
0
0
0
0
0
0
0
0
0
0
0
0
0
0
0
0
0
0
0
0
0
0
0
0
0
0
0
0
0
0
0
0
0
0
0
0
0
0
0
0
0
0
0
0
0
0
1.6944e-005
1.6944e-005
2.11864e-005
2.53313e-005
2.93614e-005
3.32563e-005
3.69923e-005
4.05425e-005
4.38771e-005
4.69629e-005
4.97642e-005
5.22422e-005
5.43562e-005
5.60635e-005
5.73208e-005
5.80849e-005
5.83143e-005
5.79705e-005
5.70196e-005
5.54345e-005
5.31969e-005
5.02988e-005
4.67445e-005
4.25523e-005
3.77554e-005
3.24025e-005
2.65574e-005
2.02985e-005
1.3717e-005
6.91427e-006
-9.47839e-010
-6.91616e-006
-1.37189e-005
-2.03004e-005
-2.65592e-005
-3.24042e-005
-3.77572e-005
-4.2554e-005
-4.67461e-005
-5.03003e-005
-5.31984e-005
-5.5436e-005
-5.70209e-005
-5.79717e-005
-5.83155e-005
-5.80861e-005
-5.73218e-005
-5.60645e-005
-5.43571e-005
-5.22431e-005
-4.9765e-005
-4.69636e-005
-4.38777e-005
-4.0543e-005
-3.69927e-005
-3.32567e-005
-2.93617e-005
-2.53315e-005
-2.11866e-005
-1.69442e-005
-1.69442e-005
1.72151e-005
1.72151e-005
2.15173e-005
2.57333e-005
2.98405e-005
3.38164e-005
3.76366e-005
4.12736e-005
4.46971e-005
4.78736e-005
5.07661e-005
5.33352e-005
5.55384e-005
5.73316e-005
5.86692e-005
5.95058e-005
5.97971e-005
5.95013e-005
5.85818e-005
5.7008e-005
5.47586e-005
5.18229e-005
4.82032e-005
4.39162e-005
3.89947e-005
3.34883e-005
2.74628e-005
2.10001e-005
1.41958e-005
7.1571e-006
-9.57116e-010
-7.15901e-006
-1.41977e-005
-2.1002e-005
-2.74647e-005
-3.34901e-005
-3.89965e-005
-4.39178e-005
-4.82048e-005
-5.18245e-005
-5.47601e-005
-5.70095e-005
-5.85831e-005
-5.95026e-005
-5.97983e-005
-5.9507e-005
-5.86703e-005
-5.73326e-005
-5.55393e-005
-5.3336e-005
-5.07669e-005
-4.78743e-005
-4.46978e-005
-4.12742e-005
-3.7637e-005
-3.38168e-005
-2.98408e-005
-2.57336e-005
-2.15175e-005
-1.72153e-005
-1.72153e-005
1.74126e-005
1.74126e-005
2.17552e-005
2.60167e-005
3.01765e-005
3.42124e-005
3.81001e-005
4.18125e-005
4.53192e-005
4.85862e-005
5.15763e-005
5.42487e-005
5.65597e-005
5.8463e-005
5.99105e-005
6.08533e-005
6.12433e-005
6.10345e-005
6.01851e-005
5.866e-005
5.64325e-005
5.34875e-005
4.98231e-005
4.54534e-005
4.04096e-005
3.47415e-005
2.85172e-005
2.18228e-005
1.47601e-005
7.44408e-006
-9.68111e-010
-7.44601e-006
-1.4762e-005
-2.18246e-005
-2.8519e-005
-3.47433e-005
-4.04113e-005
-4.5455e-005
-4.98247e-005
-5.3489e-005
-5.64341e-005
-5.86614e-005
-6.01865e-005
-6.10358e-005
-6.12445e-005
-6.08544e-005
-5.99115e-005
-5.8464e-005
-5.65606e-005
-5.42495e-005
-5.15771e-005
-4.85869e-005
-4.53198e-005
-4.18131e-005
-3.81006e-005
-3.42128e-005
-3.01768e-005
-2.6017e-005
-2.17554e-005
-1.74127e-005
-1.74127e-005
1.76707e-005
1.76707e-005
2.20731e-005
2.64006e-005
3.06347e-005
3.47546e-005
3.87369e-005
4.25548e-005
4.61781e-005
4.95728e-005
5.27009e-005
5.55203e-005
5.79852e-005
6.00465e-005
6.16525e-005
6.27497e-005
6.32843e-005
6.32041e-005
6.24604e-005
6.10105e-005
5.88204e-005
5.58679e-005
5.21452e-005
4.76616e-005
4.24462e-005
3.65485e-005
3.00399e-005
2.30122e-005
1.55766e-005
7.85963e-006
-9.83622e-010
-7.8616e-006
-1.55786e-005
-2.30142e-005
-3.00417e-005
-3.65503e-005
-4.2448e-005
-4.76634e-005
-5.21468e-005
-5.58695e-005
-5.88219e-005
-6.10119e-005
-6.24618e-005
-6.32054e-005
-6.32855e-005
-6.27508e-005
-6.16536e-005
-6.00475e-005
-5.79861e-005
-5.55211e-005
-5.27017e-005
-4.95735e-005
-4.61788e-005
-4.25553e-005
-3.87373e-005
-3.4755e-005
-3.0635e-005
-2.64009e-005
-2.20733e-005
-1.76708e-005
-1.76708e-005
1.79877e-005
1.79877e-005
2.2466e-005
2.68779e-005
3.12071e-005
3.54345e-005
3.95379e-005
4.34916e-005
4.72657e-005
5.08261e-005
5.41341e-005
5.71462e-005
5.98141e-005
6.20853e-005
6.39033e-005
6.52085e-005
6.59401e-005
6.60373e-005
6.54418e-005
6.4101e-005
6.19706e-005
5.90184e-005
5.52279e-005
5.06018e-005
4.51649e-005
3.89665e-005
3.20814e-005
2.46097e-005
1.66746e-005
8.4188e-006
-1.00381e-009
-8.4208e-006
-1.66766e-005
-2.46117e-005
-3.20833e-005
-3.89684e-005
-4.51667e-005
-5.06036e-005
-5.52296e-005
-5.902e-005
-6.19722e-005
-6.41025e-005
-6.54432e-005
-6.60386e-005
-6.59413e-005
-6.52097e-005
-6.39044e-005
-6.20863e-005
-5.98151e-005
-5.7147e-005
-5.41349e-005
-5.08268e-005
-4.72663e-005
-4.34921e-005
-3.95384e-005
-3.54349e-005
-3.12074e-005
-2.68781e-005
-2.24662e-005
-1.79878e-005
-1.79878e-005
1.83574e-005
1.83574e-005
2.29253e-005
2.74379e-005
3.18812e-005
3.62383e-005
4.04887e-005
4.46079e-005
4.85668e-005
5.23317e-005
5.58632e-005
5.91162e-005
6.20398e-005
6.45774e-005
6.66666e-005
6.8241e-005
6.92302e-005
6.95629e-005
6.91686e-005
6.79812e-005
6.59426e-005
6.30072e-005
5.91463e-005
5.43528e-005
4.86452e-005
4.20712e-005
3.47097e-005
2.66705e-005
1.80932e-005
9.14197e-006
-1.02882e-009
-9.14402e-006
-1.80953e-005
-2.66725e-005
-3.47116e-005
-4.20731e-005
-4.8647e-005
-5.43545e-005
-5.9148e-005
-6.30088e-005
-6.59441e-005
-6.79827e-005
-6.917e-005
-6.95642e-005
-6.92315e-005
-6.82421e-005
-6.66677e-005
-6.45784e-005
-6.20408e-005
-5.9117e-005
-5.58639e-005
-5.23324e-005
-4.85674e-005
-4.46084e-005
-4.04892e-005
-3.62387e-005
-3.18815e-005
-2.74381e-005
-2.29255e-005
-1.83575e-005
-1.83575e-005
1.87711e-005
1.87711e-005
2.34398e-005
2.8067e-005
3.26416e-005
3.71489e-005
4.15707e-005
4.58843e-005
5.00621e-005
5.40707e-005
5.78707e-005
6.14155e-005
6.46516e-005
6.75175e-005
6.9945e-005
7.18584e-005
7.31768e-005
7.38154e-005
7.36884e-005
7.27124e-005
7.08113e-005
6.79214e-005
6.39972e-005
5.90177e-005
5.29918e-005
4.59635e-005
3.80154e-005
2.92695e-005
1.98859e-005
1.00569e-005
-1.05873e-009
-1.0059e-005
-1.98879e-005
-2.92716e-005
-3.80174e-005
-4.59655e-005
-5.29936e-005
-5.90195e-005
-6.39989e-005
-6.7923e-005
-7.08129e-005
-7.27139e-005
-7.36898e-005
-7.38168e-005
-7.31781e-005
-7.18596e-005
-6.99461e-005
-6.75186e-005
-6.46525e-005
-6.14164e-005
-5.78714e-005
-5.40714e-005
-5.00626e-005
-4.58848e-005
-4.15711e-005
-3.71493e-005
-3.26419e-005
-2.80673e-005
-2.344e-005
-1.87713e-005
-1.87713e-005
1.92177e-005
1.92177e-005
2.39957e-005
2.87489e-005
3.34692e-005
3.8145e-005
4.27608e-005
4.72965e-005
5.17263e-005
5.60184e-005
6.01332e-005
6.40236e-005
6.76332e-005
7.08963e-005
7.37372e-005
7.60707e-005
7.78032e-005
7.88336e-005
7.9057e-005
7.83686e-005
7.66688e-005
7.38698e-005
6.99034e-005
6.47289e-005
5.83407e-005
5.07757e-005
4.21189e-005
3.25063e-005
2.21238e-005
1.12007e-005
-1.09351e-009
-1.12029e-005
-2.21259e-005
-3.25084e-005
-4.21209e-005
-5.07776e-005
-5.83426e-005
-6.47308e-005
-6.99052e-005
-7.38715e-005
-7.66704e-005
-7.83702e-005
-7.90585e-005
-7.8835e-005
-7.78045e-005
-7.6072e-005
-7.37383e-005
-7.08973e-005
-6.76342e-005
-6.40245e-005
-6.0134e-005
-5.6019e-005
-5.17269e-005
-4.7297e-005
-4.27612e-005
-3.81453e-005
-3.34695e-005
-2.87491e-005
-2.39959e-005
-1.92178e-005
-1.92178e-005
1.96836e-005
1.96836e-005
2.45764e-005
2.94637e-005
3.43412e-005
3.9201e-005
4.4031e-005
4.88145e-005
5.35284e-005
5.81431e-005
6.26203e-005
6.69125e-005
7.09614e-005
7.4697e-005
7.80366e-005
8.08842e-005
8.31314e-005
8.46586e-005
8.53375e-005
8.50362e-005
8.36252e-005
8.09854e-005
7.70178e-005
7.16539e-005
6.48664e-005
5.66796e-005
4.71781e-005
3.6513e-005
2.49022e-005
1.26234e-005
-1.13274e-009
-1.26256e-005
-2.49044e-005
-3.65152e-005
-4.71802e-005
-5.66816e-005
-6.48683e-005
-7.16557e-005
-7.70196e-005
-8.09872e-005
-8.36269e-005
-8.50378e-005
-8.5339e-005
-8.466e-005
-8.31328e-005
-8.08854e-005
-7.80377e-005
-7.46981e-005
-7.09623e-005
-6.69133e-005
-6.2621e-005
-5.81437e-005
-5.3529e-005
-4.88149e-005
-4.40314e-005
-3.92013e-005
-3.43415e-005
-2.94639e-005
-2.45765e-005
-1.96837e-005
-1.96837e-005
2.01532e-005
2.01532e-005
2.51624e-005
3.01884e-005
3.5231e-005
4.02866e-005
4.53479e-005
5.04019e-005
5.54299e-005
6.04052e-005
6.52922e-005
7.00445e-005
7.46028e-005
7.88938e-005
8.28278e-005
8.6298e-005
8.91797e-005
9.13317e-005
9.25981e-005
9.28135e-005
9.18104e-005
8.94288e-005
8.55284e-005
8.00023e-005
7.27913e-005
6.38981e-005
5.3401e-005
4.14655e-005
2.83486e-005
1.43918e-005
-1.17528e-009
-1.43941e-005
-2.83509e-005
-4.14677e-005
-5.34032e-005
-6.39002e-005
-7.27933e-005
-8.00042e-005
-8.55302e-005
-8.94306e-005
-9.18122e-005
-9.28152e-005
-9.25996e-005
-9.13331e-005
-8.91811e-005
-8.62992e-005
-8.2829e-005
-7.88949e-005
-7.46038e-005
-7.00453e-005
-6.52929e-005
-6.04058e-005
-5.54304e-005
-5.04023e-005
-4.53482e-005
-4.02869e-005
-3.52312e-005
-3.01886e-005
-2.51626e-005
-2.01533e-005
-2.01533e-005
2.06086e-005
2.06086e-005
2.57318e-005
3.08965e-005
3.61076e-005
4.13668e-005
4.66718e-005
5.20154e-005
5.73838e-005
6.27555e-005
6.80988e-005
7.33703e-005
7.85116e-005
8.34475e-005
8.80828e-005
9.23e-005
9.59577e-005
9.88902e-005
0.000100909
0.000101809
0.000101374
9.93909e-005
9.56645e-005
9.00356e-005
8.23985e-005
7.27205e-005
6.10624e-005
4.75993e-005
3.2635e-005
1.65963e-005
-1.21842e-009
-1.65988e-005
-3.26374e-005
-4.76015e-005
-6.10646e-005
-7.27226e-005
-8.24005e-005
-9.00376e-005
-9.56665e-005
-9.93927e-005
-0.000101376
-0.000101811
-0.000100911
-9.88917e-005
-9.59591e-005
-9.23013e-005
-8.8084e-005
-8.34486e-005
-7.85125e-005
-7.3371e-005
-6.80995e-005
-6.27561e-005
-5.73843e-005
-5.20158e-005
-4.66721e-005
-4.1367e-005
-3.61077e-005
-3.08966e-005
-2.57319e-005
-2.06087e-005
-2.06087e-005
2.10297e-005
2.10297e-005
2.62595e-005
3.15581e-005
3.6936e-005
4.2401e-005
4.79572e-005
5.3604e-005
5.93346e-005
6.51341e-005
7.09773e-005
7.68261e-005
8.26257e-005
8.83018e-005
9.37559e-005
9.88614e-005
0.000103461
0.000107362
0.00011034
0.00011214
0.000112486
0.000111096
0.000107703
0.000102077
9.40465e-005
8.35231e-005
7.05287e-005
5.52342e-005
3.79958e-005
1.93599e-005
-1.25611e-009
-1.93624e-005
-3.79983e-005
-5.52366e-005
-7.0531e-005
-8.35253e-005
-9.40486e-005
-0.000102079
-0.000107705
-0.000111098
-0.000112488
-0.000112142
-0.000110342
-0.000107364
-0.000103462
-9.88627e-005
-9.3757e-005
-8.83028e-005
-8.26266e-005
-7.68268e-005
-7.09779e-005
-6.51346e-005
-5.9335e-005
-5.36043e-005
-4.79575e-005
-4.24012e-005
-3.69362e-005
-3.15582e-005
-2.62596e-005
-2.10298e-005
-2.10298e-005
2.13947e-005
2.13947e-005
2.67185e-005
3.21404e-005
3.76774e-005
4.3344e-005
4.91519e-005
5.51088e-005
6.12164e-005
6.74689e-005
7.38503e-005
8.03309e-005
8.68633e-005
9.3378e-005
9.97772e-005
0.000105929
0.000111662
0.000116757
0.000120949
0.000123924
0.000125333
0.000124804
0.000121975
0.000116523
0.000108187
9.67967e-005
8.22953e-005
6.48132e-005
4.47543e-005
2.28486e-005
-1.27513e-009
-2.28512e-005
-4.47568e-005
-6.48156e-005
-8.22976e-005
-9.67989e-005
-0.00010819
-0.000116525
-0.000121977
-0.000124806
-0.000125335
-0.000123926
-0.00012095
-0.000116758
-0.000111663
-0.00010593
-9.97784e-005
-9.3379e-005
-8.68642e-005
-8.03315e-005
-7.38508e-005
-6.74693e-005
-6.12167e-005
-5.5109e-005
-4.91521e-005
-4.33441e-005
-3.76775e-005
-3.21405e-005
-2.67185e-005
-2.13947e-005
-2.13947e-005
2.16798e-005
2.16798e-005
2.70792e-005
3.26077e-005
3.82891e-005
4.41456e-005
5.01978e-005
5.64627e-005
6.29531e-005
6.96748e-005
7.6624e-005
8.37837e-005
9.11187e-005
9.85696e-005
0.000106046
0.000113416
0.000120499
0.000127055
0.000132773
0.000137275
0.000140117
0.000140812
0.000138871
0.000133851
0.000125383
0.000113181
9.70425e-005
7.69691e-005
5.33596e-005
2.72818e-005
-1.24705e-009
-2.72843e-005
-5.33622e-005
-7.69715e-005
-9.70449e-005
-0.000113184
-0.000125386
-0.000133853
-0.000138873
-0.000140814
-0.000140119
-0.000137278
-0.000132775
-0.000127057
-0.000120501
-0.000113417
-0.000106047
-9.85706e-005
-9.11194e-005
-8.37843e-005
-7.66245e-005
-6.96752e-005
-6.29534e-005
-5.64629e-005
-5.01979e-005
-4.41457e-005
-3.82891e-005
-3.26078e-005
-2.70792e-005
-2.16798e-005
-2.16798e-005
2.18604e-005
2.18604e-005
2.73108e-005
3.29222e-005
3.87255e-005
4.47517e-005
5.10307e-005
5.75912e-005
6.44586e-005
7.16531e-005
7.91872e-005
8.70611e-005
9.52579e-005
0.000103736
0.00011242
0.00012119
0.000129865
0.000138189
0.000145815
0.000152287
0.000157047
0.000159455
0.000158847
0.000154625
0.000146314
0.000133502
0.000115725
9.26612e-005
6.44337e-005
3.29203e-005
-1.11345e-009
-3.29227e-005
-6.44362e-005
-9.26636e-005
-0.000115727
-0.000133505
-0.000146317
-0.000154628
-0.000158849
-0.000159457
-0.00015705
-0.000152289
-0.000145817
-0.000138191
-0.000129867
-0.000121191
-0.000112421
-0.000103737
-9.52585e-005
-8.70616e-005
-7.91876e-005
-7.16534e-005
-6.44587e-005
-5.75913e-005
-5.10308e-005
-4.47517e-005
-3.87255e-005
-3.29222e-005
-2.73108e-005
-2.18603e-005
-2.18603e-005
2.19109e-005
2.19109e-005
2.73815e-005
3.30447e-005
3.89392e-005
4.51047e-005
5.15822e-005
5.84128e-005
6.56368e-005
7.32919e-005
8.14105e-005
9.00157e-005
9.91157e-005
0.000108696
0.000118709
0.000129058
0.000139581
0.000150023
0.000160009
0.000169011
0.00017633
0.000181113
0.000182435
0.00017949
0.000171746
0.000158788
0.000139694
0.000113517
7.87943e-005
3.99672e-005
-7.72045e-010
-3.99691e-005
-7.87966e-005
-0.00011352
-0.000139696
-0.000158791
-0.000171749
-0.000179493
-0.000182438
-0.000181115
-0.000176333
-0.000169013
-0.000160011
-0.000150025
-0.000139583
-0.000129059
-0.00011871
-0.000108697
-9.91162e-005
-9.0016e-005
-8.14107e-005
-7.3292e-005
-6.56368e-005
-5.84128e-005
-5.15822e-005
-4.51047e-005
-3.89391e-005
-3.30446e-005
-2.73814e-005
-2.19108e-005
-2.19108e-005
2.18063e-005
2.18063e-005
2.72597e-005
3.2936e-005
3.88817e-005
4.51458e-005
5.17806e-005
5.8841e-005
6.63839e-005
7.44671e-005
8.31471e-005
9.24753e-005
0.000102493
0.000113224
0.000124661
0.000136753
0.000149378
0.000162313
0.000175186
0.000187416
0.00019815
0.00020623
0.000210293
0.000209151
0.000202392
0.00019021
0.000170745
0.000142921
9.72597e-005
4.81556e-005
-1.43089e-010
-4.81562e-005
-9.72615e-005
-0.000142923
-0.000170748
-0.000190214
-0.000202397
-0.000209155
-0.000210296
-0.000206233
-0.000198153
-0.000187419
-0.000175188
-0.000162315
-0.000149379
-0.000136754
-0.000124662
-0.000113224
-0.000102493
-9.24755e-005
-8.31472e-005
-7.44671e-005
-6.63838e-005
-5.88408e-005
-5.17805e-005
-4.51457e-005
-3.88815e-005
-3.29359e-005
-2.72595e-005
-2.18062e-005
-2.18062e-005
2.15223e-005
2.15223e-005
2.69148e-005
3.2558e-005
3.85057e-005
4.48163e-005
5.15535e-005
5.87866e-005
6.65906e-005
7.50455e-005
8.42354e-005
9.42454e-005
0.000105158
0.000117045
0.000129958
0.000143914
0.000158865
0.000174665
0.000191005
0.000207318
0.000222624
0.000235363
0.000243354
0.000244429
0.000238463
0.000228915
0.000210153
0.000190131
0.000119159
5.53888e-005
2.72196e-010
-5.53874e-005
-0.000119158
-0.000190133
-0.00021016
-0.000228921
-0.000238469
-0.000244434
-0.000243358
-0.000235366
-0.000222627
-0.000207321
-0.000191008
-0.000174666
-0.000158866
-0.000143915
-0.000129959
-0.000117045
-0.000105158
-9.42454e-005
-8.42353e-005
-7.50453e-005
-6.65903e-005
-5.87863e-005
-5.15532e-005
-4.4816e-005
-3.85054e-005
-3.25577e-005
-2.69145e-005
-2.15222e-005
-2.15222e-005
2.10371e-005
2.10371e-005
2.6319e-005
3.18754e-005
3.77668e-005
4.40601e-005
5.08304e-005
5.81612e-005
6.61462e-005
7.4889e-005
8.45036e-005
9.51131e-005
0.000106847
0.000119839
0.000134214
0.000150079
0.000167502
0.000186475
0.000206853
0.000228225
0.000249665
0.000269242
0.000283332
0.000286747
0.000278114
0.000276831
0.000250826
0.000284034
0.000133066
5.38007e-005
-1.14496e-009
-5.38017e-005
-0.000133068
-0.000284043
-0.000250837
-0.000276835
-0.000278123
-0.000286754
-0.000283335
-0.000269245
-0.000249669
-0.000228228
-0.000206855
-0.000186477
-0.000167503
-0.000150079
-0.000134214
-0.000119839
-0.000106847
-9.51128e-005
-8.45033e-005
-7.48887e-005
-6.61458e-005
-5.81608e-005
-5.08299e-005
-4.40597e-005
-3.77664e-005
-3.18751e-005
-2.63187e-005
-2.10369e-005
-2.10369e-005
2.03321e-005
2.03321e-005
2.54487e-005
3.0858e-005
3.66259e-005
4.28271e-005
4.95466e-005
5.68818e-005
6.49441e-005
7.38608e-005
8.37768e-005
9.48558e-005
0.00010728
0.00012125
0.000136978
0.000154686
0.000174589
0.000196882
0.000221705
0.000249065
0.00027857
0.000308605
0.000333982
0.000341109
0.000310503
0.000348163
0.00023946
0.000268674
0.000116086
4.62112e-005
-7.6485e-009
-4.62311e-005
-0.000116118
-0.000268712
-0.0002395
-0.000348195
-0.000310524
-0.000341116
-0.000333986
-0.000308609
-0.000278573
-0.000249067
-0.000221707
-0.000196883
-0.00017459
-0.000154686
-0.000136978
-0.00012125
-0.00010728
-9.48553e-005
-8.37762e-005
-7.38602e-005
-6.49435e-005
-5.68812e-005
-4.9546e-005
-4.28266e-005
-3.66254e-005
-3.08576e-005
-2.54484e-005
-2.03318e-005
-2.03318e-005
1.93931e-005
1.93931e-005
2.42858e-005
2.94819e-005
3.50517e-005
4.10756e-005
4.76471e-005
5.48752e-005
6.28875e-005
7.18332e-005
8.18871e-005
9.32532e-005
0.000106168
0.000120902
0.000137764
0.000157098
0.000179286
0.000204757
0.000234022
0.000267758
0.000306943
0.000352626
0.000402889
0.000431316
0.000283353
0.000299872
0.000135178
6.34583e-007
4.82129e-005
3.26634e-005
-1.14938e-008
-3.26918e-005
-4.82508e-005
-6.71775e-007
-0.000135228
-0.000299949
-0.000283429
-0.000431368
-0.000402897
-0.000352627
-0.000306944
-0.00026776
-0.000234023
-0.000204758
-0.000179287
-0.000157098
-0.000137763
-0.000120901
-0.000106167
-9.32523e-005
-8.18863e-005
-7.18323e-005
-6.28867e-005
-5.48745e-005
-4.76464e-005
-4.1075e-005
-3.50512e-005
-2.94815e-005
-2.42854e-005
-1.93928e-005
-1.93928e-005
1.8212e-005
1.8212e-005
2.28192e-005
2.77323e-005
3.30234e-005
3.87765e-005
4.5091e-005
5.20846e-005
5.98974e-005
6.86973e-005
7.86853e-005
9.01021e-005
0.000103235
0.000118426
0.000136077
0.000156655
0.0001807
0.00020884
0.000241866
0.000281003
0.000328816
0.000392104
0.000491918
0.000394406
0.00018633
3.93776e-005
2.86898e-005
-0.000121257
-8.00528e-006
1.16198e-005
-4.96971e-009
-1.16279e-005
8.00404e-006
0.000121252
-2.87098e-005
-3.94216e-005
-0.00018641
-0.000394465
-0.000491939
-0.000392104
-0.000328817
-0.000281004
-0.000241867
-0.000208841
-0.0001807
-0.000156655
-0.000136076
-0.000118425
-0.000103234
-9.01009e-005
-7.86841e-005
-6.86962e-005
-5.98964e-005
-5.20837e-005
-4.50902e-005
-3.87758e-005
-3.30227e-005
-2.77318e-005
-2.28188e-005
-1.82117e-005
-1.82117e-005
1.67873e-005
1.67873e-005
2.10468e-005
2.56048e-005
3.05329e-005
3.59161e-005
4.18559e-005
4.84746e-005
5.59203e-005
6.43734e-005
7.40547e-005
8.52348e-005
9.82452e-005
0.000113491
0.000131463
0.000152746
0.00017802
0.000208037
0.000243598
0.000285573
0.000335247
0.000395858
0.000481578
0.000154434
0.000121354
-5.94209e-005
-2.38631e-006
-3.59561e-005
-1.28249e-005
-8.17879e-007
3.91324e-009
8.28421e-007
1.28409e-005
3.59664e-005
2.39725e-006
5.94323e-005
-0.00012137
-0.000154507
-0.000481734
-0.000395894
-0.000335251
-0.000285576
-0.0002436
-0.000208038
-0.000178019
-0.000152745
-0.000131461
-0.000113489
-9.82435e-005
-8.52332e-005
-7.40532e-005
-6.4372e-005
-5.5919e-005