# vtk DataFile Version 3.0
vtk output
ASCII
DATASET STRUCTURED_GRID
DIMENSIONS 61 71 1
POINTS 4331 double
0 0 0
0.05 0 0
0.1 0 0
0.15 0 0
0.2 0 0
0.25 0 0
0.3 0 0
0.35 0 0
0.4 0 0
0.45 0 0
0.5 0 0
0.55 0 0
0.6 0 0
0.65 0 0
0.7 0 0
0.75 0 0
0.8 0 0
0.85 0 0
0.9 0 0
0.95 0 0
1 0 0
1.05 0 0
1.1 0 0
1.15 0 0
1.2 0 0
1.25 0 0
1.3 0 0
1.35 0 0
1.4 0 0
1.45 0 0
1.5 0 0
1.55 0 0
1.6 0 0
1.65 0 0
1.7 0 0
1.75 0 0
1.8 0 0
1.85 0 0
1.9 0 0
1.95 0 0
2 0 0
2.05 0 0
2.1 0 0
2.15 0 0
2.2 0 0
2.25 0 0
2.3 0 0
2.35 0 0
2.4 0 0
2.45 0 0
2.5 0 0
2.55 0 0
2.6 0 0
2.65 0 0
2.7 0 0
2.75 0 0
2.8 0 0
2.85 0 0
2.9 0 0
2.95 0 0
3 0 0
0 0.05 0
0.05 0.05 0
0.1 0.05 0
0.15 0.05 0
0.2 0.05 0
0.25 0.05 0
0.3 0.05 0
0.35 0.05 0
0.4 0.05 0
0.45 0.05 0
0.5 0.05 0
0.55 0.05 0
0.6 0.05 0
0.65 0.05 0
0.7 0.05 0
0.75 0.05 0
0.8 0.05 0
0.85 0.05 0
0.9 0.05 0
0.95 0.05 0
1 0.05 0
1.05 0.05 0
1.1 0.05 0
1.15 0.05 0
1.2 0.05 0
1.25 0.05 0
1.3 0.05 0
1.35 0.05 0
1.4 0.05 0
1.45 0.05 0
1.5 0.05 0
1.55 0.05 0
1.6 0.05 0
1.65 0.05 0
1.7 0.05 0
1.75 0.05 0
1.8 0.05 0
1.85 0.05 0
1.9 0.05 0
1.95 0.05 0
2 0.05 0
2.05 0.05 0
2.1 0.05 0
2.15 0.05 0
2.2 0.05 0
2.25 0.05 0
2.3 0.05 0
2.35 0.05 0
2.4 0.05 0
2.45 0.05 0
2.5 0.05 0
2.55 0.05 0
2.6 0.05 0
2.65 0.05 0
2.7 0.05 0
2.75 0.05 0
2.8 0.05 0
2.85 0.05 0
2.9 0.05 0
2.95 0.05 0
3 0.05 0
0 0.1 0
0.05 0.1 0
0.1 0.1 0
0.15 0.1 0
0.2 0.1 0
0.25 0.1 0
0.3 0.1 0
0.35 0.1 0
0.4 0.1 0
0.45 0.1 0
0.5 0.1 0
0.55 0.1 0
0.6 0.1 0
0.65 0.1 0
0.7 0.1 0
0.75 0.1 0
0.8 0.1 0
0.85 0.1 0
0.9 0.1 0
0.95 0.1 0
1 0.1 0
1.05 0.1 0
1.1 0.1 0
1.15 0.1 0
1.2 0.1 0
1.25 0.1 0
1.3 0.1 0
1.35 0.1 0
1.4 0.1 0
1.45 0.1 0
1.5 0.1 0
1.55 0.1 0
1.6 0.1 0
1.65 0.1 0
1.7 0.1 0
1.75 0.1 0
1.8 0.1 0
1.85 0.1 0
1.9 0.1 0
1.95 0.1 0
2 0.1 0
2.05 0.1 0
2.1 0.1 0
2.15 0.1 0
2.2 0.1 0
2.25 0.1 0
2.3 0.1 0
2.35 0.1 0
2.4 0.1 0
2.45 0.1 0
2.5 0.1 0
2.55 0.1 0
2.6 0.1 0
2.65 0.1 0
2.7 0.1 0
2.75 0.1 0
2.8 0.1 0
2.85 0.1 0
2.9 0.1 0
2.95 0.1 0
3 0.1 0
0 0.15 0
0.05 0.15 0
0.1 0.15 0
0.15 0.15 0
0.2 0.15 0
0.25 0.15 0
0.3 0.15 0
0.35 0.15 0
0.4 0.15 0
0.45 0.15 0
0.5 0.15 0
0.55 0.15 0
0.6 0.15 0
0.65 0.15 0
0.7 0.15 0
0.75 0.15 0
0.8 0.15 0
0.85 0.15 0
0.9 0.15 0
0.95 0.15 0
1 0.15 0
1.05 0.15 0
1.1 0.15 0
1.15 0.15 0
1.2 0.15 0
1.25 0.15 0
1.3 0.15 0
1.35 0.15 0
1.4 0.15 0
1.45 0.15 0
1.5 0.15 0
1.55 0.15 0
1.6 0.15 0
1.65 0.15 0
1.7 0.15 0
1.75 0.15 0
1.8 0.15 0
1.85 0.15 0
1.9 0.15 0
1.95 0.15 0
2 0.15 0
2.05 0.15 0
2.1 0.15 0
2.15 0.15 0
2.2 0.15 0
2.25 0.15 0
2.3 0.15 0
2.35 0.15 0
2.4 0.15 0
2.45 0.15 0
2.5 0.15 0
2.55 0.15 0
2.6 0.15 0
2.65 0.15 0
2.7 0.15 0
2.75 0.15 0
2.8 0.15 0
2.85 0.15 0
2.9 0.15 0
2.95 0.15 0
3 0.15 0
0 0.2 0
0.05 0.2 0
0.1 0.2 0
0.15 0.2 0
0.2 0.2 0
0.25 0.2 0
0.3 0.2 0
0.35 0.2 0
0.4 0.2 0
0.45 0.2 0
0.5 0.2 0
0.55 0.2 0
0.6 0.2 0
0.65 0.2 0
0.7 0.2 0
0.75 0.2 0
0.8 0.2 0
0.85 0.2 0
0.9 0.2 0
0.95 0.2 0
1 0.2 0
1.05 0.2 0
1.1 0.2 0
1.15 0.2 0
1.2 0.2 0
1.25 0.2 0
1.3 0.2 0
1.35 0.2 0
1.4 0.2 0
1.45 0.2 0
1.5 0.2 0
1.55 0.2 0
1.6 0.2 0
1.65 0.2 0
1.7 0.2 0
1.75 0.2 0
1.8 0.2 0
1.85 0.2 0
1.9 0.2 0
1.95 0.2 0
2 0.2 0
2.05 0.2 0
2.1 0.2 0
2.15 0.2 0
2.2 0.2 0
2.25 0.2 0
2.3 0.2 0
2.35 0.2 0
2.4 0.2 0
2.45 0.2 0
2.5 0.2 0
2.55 0.2 0
2.6 0.2 0
2.65 0.2 0
2.7 0.2 0
2.75 0.2 0
2.8 0.2 0
2.85 0.2 0
2.9 0.2 0
2.95 0.2 0
3 0.2 0
0 0.25 0
0.05 0.25 0
0.1 0.25 0
0.15 0.25 0
0.2 0.25 0
0.25 0.25 0
0.3 0.25 0
0.35 0.25 0
0.4 0.25 0
0.45 0.25 0
0.5 0.25 0
0.55 0.25 0
0.6 0.25 0
0.65 0.25 0
0.7 0.25 0
0.75 0.25 0
0.8 0.25 0
0.85 0.25 0
0.9 0.25 0
0.95 0.25 0
1 0.25 0
1.05 0.25 0
1.1 0.25 0
1.15 0.25 0
1.2 0.25 0
1.25 0.25 0
1.3 0.25 0
1.35 0.25 0
1.4 0.25 0
1.45 0.25 0
1.5 0.25 0
1.55 0.25 0
1.6 0.25 0
1.65 0.25 0
1.7 0.25 0
1.75 0.25 0
1.8 0.25 0
1.85 0.25 0
1.9 0.25 0
1.95 0.25 0
2 0.25 0
2.05 0.25 0
2.1 0.25 0
2.15 0.25 0
2.2 0.25 0
2.25 0.25 0
2.3 0.25 0
2.35 0.25 0
2.4 0.25 0
2.45 0.25 0
2.5 0.25 0
2.55 0.25 0
2.6 0.25 0
2.65 0.25 0
2.7 0.25 0
2.75 0.25 0
2.8 0.25 0
2.85 0.25 0
2.9 0.25 0
2.95 0.25 0
3 0.25 0
0 0.3 0
0.05 0.3 0
0.1 0.3 0
0.15 0.3 0
0.2 0.3 0
0.25 0.3 0
0.3 0.3 0
0.35 0.3 0
0.4 0.3 0
0.45 0.3 0
0.5 0.3 0
0.55 0.3 0
0.6 0.3 0
0.65 0.3 0
0.7 0.3 0
0.75 0.3 0
0.8 0.3 0
0.85 0.3 0
0.9 0.3 0
0.95 0.3 0
1 0.3 0
1.05 0.3 0
1.1 0.3 0
1.15 0.3 0
1.2 0.3 0
1.25 0.3 0
1.3 0.3 0
1.35 0.3 0
1.4 0.3 0
1.45 0.3 0
1.5 0.3 0
1.55 0.3 0
1.6 0.3 0
1.65 0.3 0
1.7 0.3 0
1.75 0.3 0
1.8 0.3 0
1.85 0.3 0
1.9 0.3 0
1.95 0.3 0
2 0.3 0
2.05 0.3 0
2.1 0.3 0
2.15 0.3 0
2.2 0.3 0
2.25 0.3 0
2.3 0.3 0
2.35 0.3 0
2.4 0.3 0
2.45 0.3 0
2.5 0.3 0
2.55 0.3 0
2.6 0.3 0
2.65 0.3 0
2.7 0.3 0
2.75 0.3 0
2.8 0.3 0
2.85 0.3 0
2.9 0.3 0
2.95 0.3 0
3 0.3 0
0 0.35 0
0.05 0.35 0
0.1 0.35 0
0.15 0.35 0
0.2 0.35 0
0.25 0.35 0
0.3 0.35 0
0.35 0.35 0
0.4 0.35 0
0.45 0.35 0
0.5 0.35 0
0.55 0.35 0
0.6 0.35 0
0.65 0.35 0
0.7 0.35 0
0.75 0.35 0
0.8 0.35 0
0.85 0.35 0
0.9 0.35 0
0.95 0.35 0
1 0.35 0
1.05 0.35 0
1.1 0.35 0
1.15 0.35 0
1.2 0.35 0
1.25 0.35 0
1.3 0.35 0
1.35 0.35 0
1.4 0.35 0
1.45 0.35 0
1.5 0.35 0
1.55 0.35 0
1.6 0.35 0
1.65 0.35 0
1.7 0.35 0
1.75 0.35 0
1.8 0.35 0
1.85 0.35 0
1.9 0.35 0
1.95 0.35 0
2 0.35 0
2.05 0.35 0
2.1 0.35 0
2.15 0.35 0
2.2 0.35 0
2.25 0.35 0
2.3 0.35 0
2.35 0.35 0
2.4 0.35 0
2.45 0.35 0
2.5 0.35 0
2.55 0.35 0
2.6 0.35 0
2.65 0.35 0
2.7 0.35 0
2.75 0.35 0
2.8 0.35 0
2.85 0.35 0
2.9 0.35 0
2.95 0.35 0
3 0.35 0
0 0.4 0
0.05 0.4 0
0.1 0.4 0
0.15 0.4 0
0.2 0.4 0
0.25 0.4 0
0.3 0.4 0
0.35 0.4 0
0.4 0.4 0
0.45 0.4 0
0.5 0.4 0
0.55 0.4 0
0.6 0.4 0
0.65 0.4 0
0.7 0.4 0
0.75 0.4 0
0.8 0.4 0
0.85 0.4 0
0.9 0.4 0
0.95 0.4 0
1 0.4 0
1.05 0.4 0
1.1 0.4 0
1.15 0.4 0
1.2 0.4 0
1.25 0.4 0
1.3 0.4 0
1.35 0.4 0
1.4 0.4 0
1.45 0.4 0
1.5 0.4 0
1.55 0.4 0
1.6 0.4 0
1.65 0.4 0
1.7 0.4 0
1.75 0.4 0
1.8 0.4 0
1.85 0.4 0
1.9 0.4 0
1.95 0.4 0
2 0.4 0
2.05 0.4 0
2.1 0.4 0
2.15 0.4 0
2.2 0.4 0
2.25 0.4 0
2.3 0.4 0
2.35 0.4 0
2.4 0.4 0
2.45 0.4 0
2.5 0.4 0
2.55 0.4 0
2.6 0.4 0
2.65 0.4 0
2.7 0.4 0
2.75 0.4 0
2.8 0.4 0
2.85 0.4 0
2.9 0.4 0
2.95 0.4 0
3 0.4 0
0 0.45 0
0.05 0.45 0
0.1 0.45 0
0.15 0.45 0
0.2 0.45 0
0.25 0.45 0
0.3 0.45 0
0.35 0.45 0
0.4 0.45 0
0.45 0.45 0
0.5 0.45 0
0.55 0.45 0
0.6 0.45 0
0.65 0.45 0
0.7 0.45 0
0.75 0.45 0
0.8 0.45 0
0.85 0.45 0
0.9 0.45 0
0.95 0.45 0
1 0.45 0
1.05 0.45 0
1.1 0.45 0
1.15 0.45 0
1.2 0.45 0
1.25 0.45 0
1.3 0.45 0
1.35 0.45 0
1.4 0.45 0
1.45 0.45 0
1.5 0.45 0
1.55 0.45 0
1.6 0.45 0
1.65 0.45 0
1.7 0.45 0
1.75 0.45 0
1.8 0.45 0
1.85 0.45 0
1.9 0.45 0
1.95 0.45 0
2 0.45 0
2.05 0.45 0
2.1 0.45 0
2.15 0.45 0
2.2 0.45 0
2.25 0.45 0
2.3 0.45 0
2.35 0.45 0
2.4 0.45 0
2.45 0.45 0
2.5 0.45 0
2.55 0.45 0
2.6 0.45 0
2.65 0.45 0
2.7 0.45 0
2.75 0.45 0
2.8 0.45 0
2.85 0.45 0
2.9 0.45 0
2.95 0.45 0
3 0.45 0
0 0.5 0
0.05 0.5 0
0.1 0.5 0
0.15 0.5 0
0.2 0.5 0
0.25 0.5 0
0.3 0.5 0
0.35 0.5 0
0.4 0.5 0
0.45 0.5 0
0.5 0.5 0
0.55 0.5 0
0.6 0.5 0
0.65 0.5 0
0.7 0.5 0
0.75 0.5 0
0.8 0.5 0
0.85 0.5 0
0.9 0.5 0
0.95 0.5 0
1 0.5 0
1.05 0.5 0
1.1 0.5 0
1.15 0.5 0
1.2 0.5 0
1.25 0.5 0
1.3 0.5 0
1.35 0.5 0
1.4 0.5 0
1.45 0.5 0
1.5 0.5 0
1.55 0.5 0
1.6 0.5 0
1.65 0.5 0
1.7 0.5 0
1.75 0.5 0
1.8 0.5 0
1.85 0.5 0
1.9 0.5 0
1.95 0.5 0
2 0.5 0
2.05 0.5 0
2.1 0.5 0
2.15 0.5 0
2.2 0.5 0
2.25 0.5 0
2.3 0.5 0
2.35 0.5 0
2.4 0.5 0
2.45 0.5 0
2.5 0.5 0
2.55 0.5 0
2.6 0.5 0
2.65 0.5 0
2.7 0.5 0
2.75 0.5 0
2.8 0.5 0
2.85 0.5 0
2.9 0.5 0
2.95 0.5 0
3 0.5 0
0 0.55 0
0.05 0.55 0
0.1 0.55 0
0.15 0.55 0
0.2 0.55 0
0.25 0.55 0
0.3 0.55 0
0.35 0.55 0
0.4 0.55 0
0.45 0.55 0
0.5 0.55 0
0.55 0.55 0
0.6 0.55 0
0.65 0.55 0
0.7 0.55 0
0.75 0.55 0
0.8 0.55 0
0.85 0.55 0
0.9 0.55 0
0.95 0.55 0
1 0.55 0
1.05 0.55 0
1.1 0.55 0
1.15 0.55 0
1.2 0.55 0
1.25 0.55 0
1.3 0.55 0
1.35 0.55 0
1.4 0.55 0
1.45 0.55 0
1.5 0.55 0
1.55 0.55 0
1.6 0.55 0
1.65 0.55 0
1.7 0.55 0
1.75 0.55 0
1.8 0.55 0
1.85 0.55 0
1.9 0.55 0
1.95 0.55 0
2 0.55 0
2.05 0.55 0
2.1 0.55 0
2.15 0.55 0
2.2 0.55 0
2.25 0.55 0
2.3 0.55 0
2.35 0.55 0
2.4 0.55 0
2.45 0.55 0
2.5 0.55 0
2.55 0.55 0
2.6 0.55 0
2.65 0.55 0
2.7 0.55 0
2.75 0.55 0
2.8 0.55 0
2.85 0.55 0
2.9 0.55 0
2.95 0.55 0
3 0.55 0
0 0.6 0
0.05 0.6 0
0.1 0.6 0
0.15 0.6 0
0.2 0.6 0
0.25 0.6 0
0.3 0.6 0
0.35 0.6 0
0.4 0.6 0
0.45 0.6 0
0.5 0.6 0
0.55 0.6 0
0.6 0.6 0
0.65 0.6 0
0.7 0.6 0
0.75 0.6 0
0.8 0.6 0
0.85 0.6 0
0.9 0.6 0
0.95 0.6 0
1 0.6 0
1.05 0.6 0
1.1 0.6 0
1.15 0.6 0
1.2 0.6 0
1.25 0.6 0
1.3 0.6 0
1.35 0.6 0
1.4 0.6 0
1.45 0.6 0
1.5 0.6 0
1.55 0.6 0
1.6 0.6 0
1.65 0.6 0
1.7 0.6 0
1.75 0.6 0
1.8 0.6 0
1.85 0.6 0
1.9 0.6 0
1.95 0.6 0
2 0.6 0
2.05 0.6 0
2.1 0.6 0
2.15 0.6 0
2.2 0.6 0
2.25 0.6 0
2.3 0.6 0
2.35 0.6 0
2.4 0.6 0
2.45 0.6 0
2.5 0.6 0
2.55 0.6 0
2.6 0.6 0
2.65 0.6 0
2.7 0.6 0
2.75 0.6 0
2.8 0.6 0
2.85 0.6 0
2.9 0.6 0
2.95 0.6 0
3 0.6 0
0 0.65 0
0.05 0.65 0
0.1 0.65 0
0.15 0.65 0
0.2 0.65 0
0.25 0.65 0
0.3 0.65 0
0.35 0.65 0
0.4 0.65 0
0.45 0.65 0
0.5 0.65 0
0.55 0.65 0
0.6 0.65 0
0.65 0.65 0
0.7 0.65 0
0.75 0.65 0
0.8 0.65 0
0.85 0.65 0
0.9 0.65 0
0.95 0.65 0
1 0.65 0
1.05 0.65 0
1.1 0.65 0
1.15 0.65 0
1.2 0.65 0
1.25 0.65 0
1.3 0.65 0
1.35 0.65 0
1.4 0.65 0
1.45 0.65 0
1.5 0.65 0
1.55 0.65 0
1.6 0.65 0
1.65 0.65 0
1.7 0.65 0
1.75 0.65 0
1.8 0.65 0
1.85 0.65 0
1.9 0.65 0
1.95 0.65 0
2 0.65 0
2.05 0.65 0
2.1 0.65 0
2.15 0.65 0
2.2 0.65 0
2.25 0.65 0
2.3 0.65 0
2.35 0.65 0
2.4 0.65 0
2.45 0.65 0
2.5 0.65 0
[...]
POINT_DATA 4331
SCALARS u double
LOOKUP_TABLE default
0
0
0
0
0
0
0
0
0
0
0
0
0
0
0
0
0
0
0
0
0
0
0
0
0
0
0
0
0
0
0
0
0
0
0
0
0
0
0
0
0
0
0
0
0
0
0
0
0
0
0
0
0
0
0
0
0
0
0
0
0
1.26544e-005
1.26544e-005
1.63032e-005
1.98743e-005
2.33517e-005
2.67172e-005
2.99499e-005
3.30262e-005
3.59203e-005
3.86039e-005
4.10459e-005
4.32136e-005
4.50718e-005
4.65845e-005
4.77147e-005
4.84258e-005
4.86823e-005
4.84516e-005
4.7705e-005
4.64195e-005
4.45796e-005
4.21785e-005
3.922e-005
3.57197e-005
3.17057e-005
2.72194e-005
2.23152e-005
1.70595e-005
1.15299e-005
5.81235e-006
-7.09156e-010
-5.81376e-006
-1.15313e-005
-1.70609e-005
-2.23166e-005
-2.72208e-005
-3.1707e-005
-3.57209e-005
-3.92212e-005
-4.21797e-005
-4.45807e-005
-4.64206e-005
-4.7706e-005
-4.84525e-005
-4.86832e-005
-4.84266e-005
-4.77156e-005
-4.65853e-005
-4.50726e-005
-4.32142e-005
-4.10465e-005
-3.86044e-005
-3.59208e-005
-3.30266e-005
-2.99502e-005
-2.67176e-005
-2.3352e-005
-1.98745e-005
-1.63034e-005
-1.26545e-005
-1.26545e-005
1.2842e-005
1.2842e-005
1.65389e-005
2.01661e-005
2.37043e-005
2.71336e-005
3.04327e-005
3.35779e-005
3.65429e-005
3.92989e-005
4.18145e-005
4.40558e-005
4.59868e-005
4.757e-005
4.87666e-005
4.95381e-005
4.98469e-005
4.96578e-005
4.89394e-005
4.76662e-005
4.582e-005
4.33917e-005
4.03834e-005
3.68093e-005
3.26973e-005
2.80893e-005
2.30413e-005
1.76227e-005
1.19144e-005
6.00743e-006
-7.13771e-010
-6.00885e-006
-1.19158e-005
-1.76241e-005
-2.30427e-005
-2.80907e-005
-3.26986e-005
-3.68105e-005
-4.03846e-005
-4.33929e-005
-4.58211e-005
-4.76673e-005
-4.89404e-005
-4.96588e-005
-4.98479e-005
-4.9539e-005
-4.87674e-005
-4.75707e-005
-4.59875e-005
-4.40564e-005
-4.18151e-005
-3.92994e-005
-3.65433e-005
-3.35783e-005
-3.04331e-005
-2.71339e-005
-2.37046e-005
-2.01663e-005
-1.6539e-005
-1.28421e-005
-1.28421e-005
1.29942e-005
1.29942e-005
1.67286e-005
2.03973e-005
2.39823e-005
2.74643e-005
3.08222e-005
3.40325e-005
3.70689e-005
3.99025e-005
4.25014e-005
4.48308e-005
4.68536e-005
4.85304e-005
4.98204e-005
5.06821e-005
5.10746e-005
5.09592e-005
5.03004e-005
4.90684e-005
4.72407e-005
4.48044e-005
4.17581e-005
3.81138e-005
3.38979e-005
2.91527e-005
2.3936e-005
1.83207e-005
1.23932e-005
6.25093e-006
-7.21498e-010
-6.25237e-006
-1.23946e-005
-1.83221e-005
-2.39374e-005
-2.9154e-005
-3.38992e-005
-3.8115e-005
-4.17593e-005
-4.48056e-005
-4.72418e-005
-4.90695e-005
-5.03014e-005
-5.09602e-005
-5.10756e-005
-5.06829e-005
-4.98212e-005
-4.85312e-005
-4.68543e-005
-4.48315e-005
-4.2502e-005
-3.9903e-005
-3.70694e-005
-3.40329e-005
-3.08226e-005
-2.74646e-005
-2.39825e-005
-2.03975e-005
-1.67287e-005
-1.29943e-005
-1.29943e-005
1.31946e-005
1.31946e-005
1.69834e-005
2.07115e-005
2.43624e-005
2.79181e-005
3.13582e-005
3.46596e-005
3.77963e-005
4.07393e-005
4.3456e-005
4.59107e-005
4.80645e-005
4.98757e-005
5.13003e-005
5.2293e-005
5.28083e-005
5.28019e-005
5.22325e-005
5.10641e-005
4.92679e-005
4.68251e-005
4.37292e-005
3.99881e-005
3.56264e-005
3.06864e-005
2.52282e-005
1.93301e-005
1.30861e-005
6.60358e-006
-7.32418e-010
-6.60504e-006
-1.30876e-005
-1.93316e-005
-2.52296e-005
-3.06877e-005
-3.56278e-005
-3.99894e-005
-4.37304e-005
-4.68263e-005
-4.92691e-005
-5.10652e-005
-5.22336e-005
-5.28029e-005
-5.28092e-005
-5.22938e-005
-5.13011e-005
-4.98764e-005
-4.80652e-005
-4.59114e-005
-4.34566e-005
-4.07398e-005
-3.77968e-005
-3.466e-005
-3.13585e-005
-2.79184e-005
-2.43627e-005
-2.07117e-005
-1.69836e-005
-1.31947e-005
-1.31947e-005
1.34414e-005
1.34414e-005
1.72992e-005
2.11028e-005
2.48378e-005
2.84876e-005
3.20328e-005
3.54513e-005
3.87175e-005
4.18023e-005
4.46727e-005
4.72916e-005
4.96181e-005
5.16075e-005
5.32121e-005
5.43813e-005
5.50636e-005
5.52075e-005
5.47637e-005
5.36877e-005
5.19419e-005
4.94991e-005
4.63454e-005
4.24831e-005
3.79334e-005
3.27381e-005
2.69605e-005
2.06855e-005
1.40177e-005
7.07799e-006
-7.46625e-010
-7.07948e-006
-1.40192e-005
-2.0687e-005
-2.69619e-005
-3.27394e-005
-3.79348e-005
-4.24844e-005
-4.63466e-005
-4.95003e-005
-5.1943e-005
-5.36888e-005
-5.47648e-005
-5.52085e-005
-5.50645e-005
-5.43822e-005
-5.32129e-005
-5.16083e-005
-4.96188e-005
-4.72922e-005
-4.46732e-005
-4.18028e-005
-3.8718e-005
-3.54517e-005
-3.20332e-005
-2.84879e-005
-2.4838e-005
-2.1103e-005
-1.72993e-005
-1.34415e-005
-1.34415e-005
1.37301e-005
1.37301e-005
1.7669e-005
2.15626e-005
2.53984e-005
2.91616e-005
3.28342e-005
3.63953e-005
3.98202e-005
4.30798e-005
4.61408e-005
4.89648e-005
5.15087e-005
5.37244e-005
5.55592e-005
5.69566e-005
5.78573e-005
5.82008e-005
5.79273e-005
5.6981e-005
5.53128e-005
5.28839e-005
4.96702e-005
4.56657e-005
4.08861e-005
3.5372e-005
2.91901e-005
2.24337e-005
1.52211e-005
7.69146e-006
-7.64227e-010
-7.69298e-006
-1.52226e-005
-2.24352e-005
-2.91915e-005
-3.53734e-005
-4.08875e-005
-4.5667e-005
-4.96715e-005
-5.28851e-005
-5.53139e-005
-5.69822e-005
-5.79284e-005
-5.82018e-005
-5.78583e-005
-5.69575e-005
-5.556e-005
-5.37251e-005
-5.15094e-005
-4.89654e-005
-4.61413e-005
-4.30803e-005
-3.98206e-005
-3.63957e-005
-3.28345e-005
-2.91618e-005
-2.53987e-005
-2.15628e-005
-1.76692e-005
-1.37302e-005
-1.37302e-005
1.40538e-005
1.40538e-005
1.80843e-005
2.20803e-005
2.60318e-005
2.9926e-005
3.37471e-005
3.74757e-005
4.10881e-005
4.4556e-005
4.78458e-005
5.09182e-005
5.37275e-005
5.62221e-005
5.83437e-005
6.00287e-005
6.12083e-005
6.18109e-005
6.17638e-005
6.09964e-005
5.94443e-005
5.70536e-005
5.37859e-005
4.96232e-005
4.45734e-005
3.86737e-005
3.19942e-005
2.46383e-005
1.67416e-005
8.46748e-006
-7.85313e-010
-8.46904e-006
-1.67432e-005
-2.46398e-005
-3.19956e-005
-3.86752e-005
-4.45748e-005
-4.96246e-005
-5.37872e-005
-5.70549e-005
-5.94455e-005
-6.09975e-005
-6.17649e-005
-6.1812e-005
-6.12093e-005
-6.00296e-005
-5.83446e-005
-5.62228e-005
-5.37282e-005
-5.09188e-005
-4.78464e-005
-4.45565e-005
-4.10885e-005
-3.74761e-005
-3.37475e-005
-2.99263e-005
-2.6032e-005
-2.20805e-005
-1.80844e-005
-1.40539e-005
-1.40539e-005
1.44039e-005
1.44039e-005
1.85339e-005
2.26425e-005
2.67225e-005
3.07636e-005
3.47526e-005
3.86722e-005
4.25005e-005
4.62103e-005
4.97684e-005
5.31346e-005
5.62612e-005
5.90927e-005
6.1565e-005
6.36061e-005
6.51365e-005
6.60709e-005
6.63205e-005
6.57965e-005
6.44145e-005
6.21004e-005
5.87964e-005
5.4468e-005
4.91106e-005
4.27554e-005
3.54746e-005
2.73835e-005
1.86397e-005
9.43762e-006
-8.09907e-010
-9.43924e-006
-1.86413e-005
-2.73851e-005
-3.54761e-005
-4.27569e-005
-4.9112e-005
-5.44694e-005
-5.87977e-005
-6.21017e-005
-6.44157e-005
-6.57976e-005
-6.63216e-005
-6.60719e-005
-6.51375e-005
-6.3607e-005
-6.15658e-005
-5.90935e-005
-5.62619e-005
-5.31352e-005
-4.97689e-005
-4.62108e-005
-4.25009e-005
-3.86725e-005
-3.47529e-005
-3.07639e-005
-2.67227e-005
-2.26427e-005
-1.8534e-005
-1.4404e-005
-1.4404e-005
1.47703e-005
1.47703e-005
1.90049e-005
2.32335e-005
2.74519e-005
3.16534e-005
3.58275e-005
3.996e-005
4.40313e-005
4.80164e-005
5.18828e-005
5.55905e-005
5.90901e-005
6.23225e-005
6.52175e-005
6.76941e-005
6.96606e-005
7.10157e-005
7.16509e-005
7.14545e-005
7.03168e-005
6.81371e-005
6.48315e-005
6.03419e-005
5.46455e-005
4.77627e-005
3.97654e-005
3.07816e-005
2.0996e-005
1.06441e-005
-8.37858e-010
-1.06458e-005
-2.09977e-005
-3.07832e-005
-3.9767e-005
-4.77642e-005
-5.4647e-005
-6.03433e-005
-6.48328e-005
-6.81384e-005
-7.03181e-005
-7.14557e-005
-7.1652e-005
-7.10168e-005
-6.96616e-005
-6.76951e-005
-6.52183e-005
-6.23232e-005
-5.90908e-005
-5.55911e-005
-5.18834e-005
-4.80169e-005
-4.40318e-005
-3.99603e-005
-3.58278e-005
-3.16536e-005
-2.74521e-005
-2.32337e-005
-1.9005e-005
-1.47704e-005
-1.47704e-005
1.51408e-005
1.51408e-005
1.9482e-005
2.38346e-005
2.81984e-005
3.25704e-005
3.69441e-005
4.13088e-005
4.56486e-005
4.9941e-005
5.41561e-005
5.82545e-005
6.21864e-005
6.58896e-005
6.92883e-005
7.22924e-005
7.47962e-005
7.66804e-005
7.78129e-005
7.80539e-005
7.72613e-005
7.52997e-005
7.20504e-005
6.74228e-005
6.13668e-005
5.38847e-005
4.50428e-005
3.49815e-005
2.39187e-005
1.21438e-005
-8.68633e-010
-1.21455e-005
-2.39204e-005
-3.49831e-005
-4.50444e-005
-5.38862e-005
-6.13683e-005
-6.74243e-005
-7.20518e-005
-7.53011e-005
-7.72626e-005
-7.80551e-005
-7.78141e-005
-7.66815e-005
-7.47973e-005
-7.22933e-005
-6.92892e-005
-6.58904e-005
-6.21871e-005
-5.82551e-005
-5.41566e-005
-4.99415e-005
-4.5649e-005
-4.13092e-005
-3.69444e-005
-3.25706e-005
-2.81986e-005
-2.38347e-005
-1.94821e-005
-1.51409e-005
-1.51409e-005
1.55018e-005
1.55018e-005
1.99476e-005
2.44245e-005
2.89367e-005
3.34857e-005
3.80697e-005
4.26827e-005
4.73132e-005
5.19431e-005
5.6546e-005
6.10851e-005
6.55113e-005
6.97611e-005
7.3754e-005
7.73907e-005
8.05517e-005
8.30967e-005
8.48665e-005
8.56867e-005
8.53748e-005
8.37501e-005
8.06476e-005
7.59322e-005
6.95143e-005
6.13663e-005
5.15397e-005
4.01829e-005
2.75535e-005
1.40132e-005
-9.00866e-010
-1.4015e-005
-2.75552e-005
-4.01846e-005
-5.15413e-005
-6.13679e-005
-6.95158e-005
-7.59337e-005
-8.06491e-005
-8.37516e-005
-8.53761e-005
-8.5688e-005
-8.48678e-005
-8.30978e-005
-8.05527e-005
-7.73917e-005
-7.37549e-005
-6.97619e-005
-6.5512e-005
-6.10857e-005
-5.65465e-005
-5.19436e-005
-4.73136e-005
-4.2683e-005
-3.807e-005
-3.34859e-005
-2.89369e-005
-2.44247e-005
-1.99477e-005
-1.55018e-005
-1.55018e-005
1.58377e-005
1.58377e-005
2.03821e-005
2.49792e-005
2.96383e-005
3.4366e-005
3.91663e-005
4.40389e-005
4.89784e-005
5.39723e-005
5.89997e-005
6.40285e-005
6.90128e-005
7.38896e-005
7.85759e-005
8.29649e-005
8.6923e-005
9.02882e-005
9.28698e-005
9.44519e-005
9.4801e-005
9.36785e-005
9.08579e-005
8.6144e-005
7.93919e-005
7.05268e-005
5.95669e-005
4.6657e-005
3.20991e-005
1.63565e-005
-9.31406e-010
-1.63583e-005
-3.21009e-005
-4.66588e-005
-5.95686e-005
-7.05284e-005
-7.93935e-005
-8.61455e-005
-9.08594e-005
-9.368e-005
-9.48024e-005
-9.44532e-005
-9.28711e-005
-9.02894e-005
-8.69241e-005
-8.29659e-005
-7.85768e-005
-7.38904e-005
-6.90134e-005
-6.40291e-005
-5.90002e-005
-5.39727e-005
-4.89787e-005
-4.40392e-005
-3.91666e-005
-3.43662e-005
-2.96384e-005
-2.49793e-005
-2.03822e-005
-1.58378e-005
-1.58378e-005
1.61318e-005
1.61318e-005
2.07638e-005
2.5472e-005
3.02711e-005
3.51739e-005
4.01907e-005
4.53284e-005
5.05891e-005
5.5968e-005
6.14521e-005
6.70165e-005
7.26216e-005
7.82086e-005
8.36952e-005
8.897e-005
9.38874e-005
9.82634e-005
0.000101873
0.00010445
0.000105699
0.000105305
0.000102962
9.83939e-005
9.13828e-005
8.1782e-005
6.95441e-005
5.47793e-005
3.78297e-005
1.93146e-005
-9.53228e-010
-1.93165e-005
-3.78316e-005
-5.47811e-005
-6.95458e-005
-8.17837e-005
-9.13845e-005
-9.83955e-005
-0.000102963
-0.000105307
-0.0001057
-0.000104451
-0.000101874
-9.82646e-005
-9.38885e-005
-8.8971e-005
-8.36961e-005
-7.82094e-005
-7.26223e-005
-6.70171e-005
-6.14526e-005
-5.59684e-005
-5.05894e-005
-4.53287e-005
-4.01909e-005
-3.5174e-005
-3.02712e-005
-2.54721e-005
-2.07639e-005
-1.61318e-005
-1.61318e-005
1.63657e-005
1.63657e-005
2.10694e-005
2.5874e-005
3.08002e-005
3.58676e-005
4.10942e-005
4.6495e-005
5.20814e-005
5.78587e-005
6.38242e-005
6.99639e-005
7.62485e-005
8.26282e-005
8.90263e-005
9.53323e-005
0.000101393
0.000107005
0.000111907
0.000115777
0.000118239
0.000118881
0.00011729
0.000113087
0.000105964
9.56744e-005
8.20484e-005
6.50864e-005
4.5126e-005
2.30731e-005
-9.51038e-010
-2.3075e-005
-4.51279e-005
-6.50882e-005
-8.20502e-005
-9.56761e-005
-0.000105965
-0.000113089
-0.000117291
-0.000118883
-0.000118241
-0.000115779
-0.000111909
-0.000107007
-0.000101394
-9.53334e-005
-8.90272e-005
-8.26289e-005
-7.62492e-005
-6.99644e-005
-6.38246e-005
-5.7859e-005
-5.20816e-005
-4.64952e-005
-4.10943e-005
-3.58677e-005
-3.08003e-005
-2.5874e-005
-2.10694e-005
-1.63657e-005
-1.63657e-005
1.65202e-005
1.65202e-005
2.12741e-005
2.61543e-005
3.1188e-005
3.64023e-005
4.18234e-005
4.74762e-005
5.33828e-005
5.95611e-005
6.60221e-005
7.27665e-005
7.97805e-005
8.70292e-005
9.44496e-005
0.00010194
0.000109348
0.000116457
0.000122973
0.000128512
0.000132599
0.000134691
0.000134228
0.000130702
0.00012371
0.000112904
9.7889e-005
7.83922e-005
5.4515e-005
2.78529e-005
-8.93311e-010
-2.78548e-005
-5.45169e-005
-7.8394e-005
-9.78908e-005
-0.000112906
-0.000123712
-0.000130704
-0.00013423
-0.000134693
-0.000132601
-0.000128514
-0.000122975
-0.000116459
-0.000109349
-0.000101941
-9.44504e-005
-8.70299e-005
-7.9781e-005
-7.2767e-005
-6.60224e-005
-5.95614e-005
-5.3383e-005
-4.74763e-005
-4.18235e-005
-3.64024e-005
-3.11881e-005
-2.61543e-005
-2.12741e-005
-1.65202e-005
-1.65202e-005
1.65756e-005
1.65756e-005
2.13525e-005
2.62811e-005
3.13954e-005
3.67302e-005
4.2321e-005
4.82035e-005
5.44126e-005
6.0981e-005
6.79366e-005
7.52996e-005
8.30776e-005
9.12587e-005
9.98029e-005
0.00010863
0.000117601
0.000126503
0.000135018
0.000142698
0.000148953
0.000153058
0.00015423
0.000151783
0.000145271
0.000134341
0.000118212
9.60786e-005
6.66892e-005
3.38248e-005
-7.25931e-010
-3.38264e-005
-6.66911e-005
-9.60804e-005
-0.000118214
-0.000134343
-0.000145273
-0.000151785
-0.000154232
-0.00015306
-0.000148955
-0.0001427
-0.000135019
-0.000126505
-0.000117603
-0.000108631
-9.98037e-005
-9.12593e-005
-8.30781e-005
-7.53e-005
-6.79368e-005
-6.09811e-005
-5.44127e-005
-4.82035e-005
-4.2321e-005
-3.67302e-005
-3.13954e-005
-2.62811e-005
-2.13525e-005
-1.65756e-005
-1.65756e-005
1.65123e-005
1.65123e-005
2.12791e-005
2.62222e-005
3.13822e-005
3.6802e-005
4.25268e-005
4.86042e-005
5.50832e-005
6.20135e-005
6.94437e-005
7.74178e-005
8.59716e-005
9.51251e-005
0.000104874
0.000115174
0.000125925
0.000136936
0.000147895
0.00015831
0.000167458
0.000174356
0.00017785
0.00017693
0.000171249
0.000160978
0.000144539
0.000121021
8.23392e-005
4.07581e-005
-4.1609e-010
-4.0759e-005
-8.23408e-005
-0.000121023
-0.000144542
-0.000160981
-0.000171252
-0.000176933
-0.000177852
-0.000174358
-0.00016746
-0.000158312
-0.000147897
-0.000136938
-0.000125926
-0.000115175
-0.000104875
-9.51257e-005
-8.59719e-005
-7.74181e-005
-6.94438e-005
-6.20136e-005
-5.50832e-005
-4.86042e-005
-4.25268e-005
-3.68019e-005
-3.13822e-005
-2.62222e-005
-2.12791e-005
-1.65122e-005
-1.65122e-005
1.63113e-005
1.63113e-005
2.10295e-005
2.59465e-005
3.11093e-005
3.65688e-005
4.23802e-005
4.86033e-005
5.53024e-005
6.25464e-005
7.04068e-005
7.89565e-005
8.82658e-005
9.83964e-005
0.000109393
0.000121269
0.000133987
0.000147423
0.000161317
0.000175189
0.000188211
0.00019906
0.000205883
0.000206837
0.000201818
0.000193784
0.000177945
0.000161109
0.000100881
4.68635e-005
-2.99839e-010
-4.68635e-005
-0.000100881
-0.00016111
-0.00017795
-0.000193788
-0.000201822
-0.00020684
-0.000205886
-0.000199062
-0.000188214
-0.000175191
-0.000161319
-0.000147424
-0.000133988
-0.00012127
-0.000109394
-9.83968e-005
-8.8266e-005
-7.89566e-005
-7.04068e-005
-6.25463e-005
-5.53024e-005
-4.86032e-005
-4.23801e-005
-3.65687e-005
-3.11092e-005
-2.59464e-005
-2.10294e-005
-1.63112e-005
-1.63112e-005
1.59555e-005
1.59555e-005
2.05812e-005
2.5425e-005
3.05397e-005
3.59838e-005
4.18219e-005
4.81263e-005
5.4977e-005
6.24627e-005
7.06806e-005
7.97357e-005
8.97386e-005
0.000100802
0.000113033
0.000126523
0.000141331
0.000157451
0.000174761
0.000192918
0.000211139
0.000227787
0.000239786
0.000242717
0.000235403
0.000234395
0.000212349
0.000241434
0.000112513
4.54346e-005
-1.52084e-009
-4.54371e-005
-0.000112516
-0.00024144
-0.000212356
-0.000234397
-0.000235409
-0.000242721
-0.000239789
-0.00022779
-0.000211141
-0.00019292
-0.000174763
-0.000157452
-0.000141332
-0.000126524
-0.000113033
-0.000100802
-8.97387e-005
-7.97357e-005
-7.06805e-005
-6.24625e-005
-5.49768e-005
-4.81261e-005
-4.18217e-005
-3.59835e-005
-3.05395e-005
-2.54248e-005
-2.05811e-005
-1.59554e-005
-1.59554e-005
1.54301e-005
1.54301e-005
1.9915e-005
2.46325e-005
2.96408e-005
3.50046e-005
4.07974e-005
4.7103e-005
5.40166e-005
6.16469e-005
7.01174e-005
7.95672e-005
9.01513e-005
0.00010204
0.000115413
0.000130459
0.000147362
0.000166288
0.000187358
0.000210583
0.000235639
0.000261164
0.000282757
0.00028884
0.000262744
0.000295423
0.000202324
0.000227848
9.81002e-005
3.91368e-005
-5.94329e-009
-3.91524e-005
-9.8126e-005
-0.000227881
-0.000202359
-0.00029545
-0.000262759
-0.000288846
-0.00028276
-0.000261167
-0.000235641
-0.000210585
-0.00018736
-0.000166289
-0.000147363
-0.00013046
-0.000115413
-0.00010204
-9.01511e-005
-7.95669e-005
-7.0117e-005
-6.16465e-005
-5.40162e-005
-4.71026e-005
-4.07971e-005
-3.50043e-005
-2.96405e-005
-2.46323e-005
-1.99148e-005
-1.543e-005
-1.543e-005
1.47242e-005
1.47242e-005
1.90159e-005
2.35495e-005
2.83863e-005
3.35964e-005
3.92603e-005
4.54717e-005
5.23394e-005
5.99909e-005
6.85748e-005
7.82643e-005
8.926e-005
0.000101792
0.000116121
0.000132539
0.000151371
0.00017298
0.000197802
0.000226417
0.000259668
0.000298475
0.00034125
0.000366034
0.000239256
0.000254153
0.000113718
-2.67053e-006
4.07923e-005
2.80114e-005
-7.89792e-009
-2.80312e-005
-4.08199e-005
2.63898e-006
-0.000113763
-0.000254221
-0.000239323
-0.000366077
-0.000341255
-0.000298475
-0.00025967
-0.000226419
-0.000197803
-0.000172982
-0.000151372
-0.00013254
-0.000116121
-0.000101792
-8.92595e-005
-7.82638e-005
-6.85743e-005
-5.99904e-005
-5.23389e-005
-4.54712e-005
-3.92599e-005
-3.3596e-005
-2.8386e-005
-2.35492e-005
-1.90157e-005
-1.4724e-005
-1.4724e-005
1.38308e-005
1.38308e-005
1.7875e-005
2.21632e-005
2.67586e-005
3.17343e-005
3.71758e-005
4.3184e-005
4.98786e-005
5.74026e-005
6.59268e-005
7.56554e-005
8.68324e-005
9.9747e-005
0.00011474
0.000132206
0.000152603
0.000176461
0.000204451
0.000237615
0.000278142
0.00033185
0.000417295
0.000333987
0.000157352
3.12467e-005
2.4144e-005
-0.000105838
-6.88927e-006
1.01134e-005
-2.65154e-009
-1.01175e-005
6.88973e-006
0.000105835
-2.4158e-005
-3.12855e-005
-0.000157423
-0.000334038
-0.000417312
-0.00033185
-0.000278143
-0.000237617
-0.000204453
-0.000176462
-0.000152603
-0.000132206
-0.000114739
-9.97465e-005
-8.68317e-005
-7.56547e-005
-6.5926e-005
-5.74019e-005
-4.98779e-005
-4.31833e-005
-3.71752e-005
-3.17338e-005
-2.67582e-005
-2.21628e-005
-1.78747e-005
-1.38307e-005
-1.38307e-005
1.27488e-005
1.27488e-005
1.649e-005
2.04696e-005
2.47505e-005
2.94064e-005
3.45246e-005
4.02098e-005
4.65885e-005
5.38141e-005
6.20742e-005
7.15983e-005
8.26673e-005
9.56243e-005
0.000110885
0.000128943
0.000150373
0.000175811
0.000205927
0.000241452
0.00028346
0.000334653
0.000408371
0.000128197
0.000104252
-5.16841e-005
-1.67879e-006
-3.09557e-005
-1.10356e-005
-6.763e-007
4.12953e-009
6.86355e-007
1.10494e-005
3.09665e-005
1.69096e-006
5.16959e-005
-0.000104263
-0.000128262
-0.000408504
-0.000334682
-0.000283465
-0.000241455
-0.000205929
-0.000175812
-0.000150373
-0.000128943
-0.000110884
-9.56233e-005
-8.26663e-005
-7.15972e-005