# vtk DataFile Version 3.0
vtk output
ASCII
DATASET STRUCTURED_GRID
DIMENSIONS 61 71 1
POINTS 4331 double
0 0 0
0.05 0 0
0.1 0 0
0.15 0 0
0.2 0 0
0.25 0 0
0.3 0 0
0.35 0 0
0.4 0 0
0.45 0 0
0.5 0 0
0.55 0 0
0.6 0 0
0.65 0 0
0.7 0 0
0.75 0 0
0.8 0 0
0.85 0 0
0.9 0 0
0.95 0 0
1 0 0
1.05 0 0
1.1 0 0
1.15 0 0
1.2 0 0
1.25 0 0
1.3 0 0
1.35 0 0
1.4 0 0
1.45 0 0
1.5 0 0
1.55 0 0
1.6 0 0
1.65 0 0
1.7 0 0
1.75 0 0
1.8 0 0
1.85 0 0
1.9 0 0
1.95 0 0
2 0 0
2.05 0 0
2.1 0 0
2.15 0 0
2.2 0 0
2.25 0 0
2.3 0 0
2.35 0 0
2.4 0 0
2.45 0 0
2.5 0 0
2.55 0 0
2.6 0 0
2.65 0 0
2.7 0 0
2.75 0 0
2.8 0 0
2.85 0 0
2.9 0 0
2.95 0 0
3 0 0
0 0.05 0
0.05 0.05 0
0.1 0.05 0
0.15 0.05 0
0.2 0.05 0
0.25 0.05 0
0.3 0.05 0
0.35 0.05 0
0.4 0.05 0
0.45 0.05 0
0.5 0.05 0
0.55 0.05 0
0.6 0.05 0
0.65 0.05 0
0.7 0.05 0
0.75 0.05 0
0.8 0.05 0
0.85 0.05 0
0.9 0.05 0
0.95 0.05 0
1 0.05 0
1.05 0.05 0
1.1 0.05 0
1.15 0.05 0
1.2 0.05 0
1.25 0.05 0
1.3 0.05 0
1.35 0.05 0
1.4 0.05 0
1.45 0.05 0
1.5 0.05 0
1.55 0.05 0
1.6 0.05 0
1.65 0.05 0
1.7 0.05 0
1.75 0.05 0
1.8 0.05 0
1.85 0.05 0
1.9 0.05 0
1.95 0.05 0
2 0.05 0
2.05 0.05 0
2.1 0.05 0
2.15 0.05 0
2.2 0.05 0
2.25 0.05 0
2.3 0.05 0
2.35 0.05 0
2.4 0.05 0
2.45 0.05 0
2.5 0.05 0
2.55 0.05 0
2.6 0.05 0
2.65 0.05 0
2.7 0.05 0
2.75 0.05 0
2.8 0.05 0
2.85 0.05 0
2.9 0.05 0
2.95 0.05 0
3 0.05 0
0 0.1 0
0.05 0.1 0
0.1 0.1 0
0.15 0.1 0
0.2 0.1 0
0.25 0.1 0
0.3 0.1 0
0.35 0.1 0
0.4 0.1 0
0.45 0.1 0
0.5 0.1 0
0.55 0.1 0
0.6 0.1 0
0.65 0.1 0
0.7 0.1 0
0.75 0.1 0
0.8 0.1 0
0.85 0.1 0
0.9 0.1 0
0.95 0.1 0
1 0.1 0
1.05 0.1 0
1.1 0.1 0
1.15 0.1 0
1.2 0.1 0
1.25 0.1 0
1.3 0.1 0
1.35 0.1 0
1.4 0.1 0
1.45 0.1 0
1.5 0.1 0
1.55 0.1 0
1.6 0.1 0
1.65 0.1 0
1.7 0.1 0
1.75 0.1 0
1.8 0.1 0
1.85 0.1 0
1.9 0.1 0
1.95 0.1 0
2 0.1 0
2.05 0.1 0
2.1 0.1 0
2.15 0.1 0
2.2 0.1 0
2.25 0.1 0
2.3 0.1 0
2.35 0.1 0
2.4 0.1 0
2.45 0.1 0
2.5 0.1 0
2.55 0.1 0
2.6 0.1 0
2.65 0.1 0
2.7 0.1 0
2.75 0.1 0
2.8 0.1 0
2.85 0.1 0
2.9 0.1 0
2.95 0.1 0
3 0.1 0
0 0.15 0
0.05 0.15 0
0.1 0.15 0
0.15 0.15 0
0.2 0.15 0
0.25 0.15 0
0.3 0.15 0
0.35 0.15 0
0.4 0.15 0
0.45 0.15 0
0.5 0.15 0
0.55 0.15 0
0.6 0.15 0
0.65 0.15 0
0.7 0.15 0
0.75 0.15 0
0.8 0.15 0
0.85 0.15 0
0.9 0.15 0
0.95 0.15 0
1 0.15 0
1.05 0.15 0
1.1 0.15 0
1.15 0.15 0
1.2 0.15 0
1.25 0.15 0
1.3 0.15 0
1.35 0.15 0
1.4 0.15 0
1.45 0.15 0
1.5 0.15 0
1.55 0.15 0
1.6 0.15 0
1.65 0.15 0
1.7 0.15 0
1.75 0.15 0
1.8 0.15 0
1.85 0.15 0
1.9 0.15 0
1.95 0.15 0
2 0.15 0
2.05 0.15 0
2.1 0.15 0
2.15 0.15 0
2.2 0.15 0
2.25 0.15 0
2.3 0.15 0
2.35 0.15 0
2.4 0.15 0
2.45 0.15 0
2.5 0.15 0
2.55 0.15 0
2.6 0.15 0
2.65 0.15 0
2.7 0.15 0
2.75 0.15 0
2.8 0.15 0
2.85 0.15 0
2.9 0.15 0
2.95 0.15 0
3 0.15 0
0 0.2 0
0.05 0.2 0
0.1 0.2 0
0.15 0.2 0
0.2 0.2 0
0.25 0.2 0
0.3 0.2 0
0.35 0.2 0
0.4 0.2 0
0.45 0.2 0
0.5 0.2 0
0.55 0.2 0
0.6 0.2 0
0.65 0.2 0
0.7 0.2 0
0.75 0.2 0
0.8 0.2 0
0.85 0.2 0
0.9 0.2 0
0.95 0.2 0
1 0.2 0
1.05 0.2 0
1.1 0.2 0
1.15 0.2 0
1.2 0.2 0
1.25 0.2 0
1.3 0.2 0
1.35 0.2 0
1.4 0.2 0
1.45 0.2 0
1.5 0.2 0
1.55 0.2 0
1.6 0.2 0
1.65 0.2 0
1.7 0.2 0
1.75 0.2 0
1.8 0.2 0
1.85 0.2 0
1.9 0.2 0
1.95 0.2 0
2 0.2 0
2.05 0.2 0
2.1 0.2 0
2.15 0.2 0
2.2 0.2 0
2.25 0.2 0
2.3 0.2 0
2.35 0.2 0
2.4 0.2 0
2.45 0.2 0
2.5 0.2 0
2.55 0.2 0
2.6 0.2 0
2.65 0.2 0
2.7 0.2 0
2.75 0.2 0
2.8 0.2 0
2.85 0.2 0
2.9 0.2 0
2.95 0.2 0
3 0.2 0
0 0.25 0
0.05 0.25 0
0.1 0.25 0
0.15 0.25 0
0.2 0.25 0
0.25 0.25 0
0.3 0.25 0
0.35 0.25 0
0.4 0.25 0
0.45 0.25 0
0.5 0.25 0
0.55 0.25 0
0.6 0.25 0
0.65 0.25 0
0.7 0.25 0
0.75 0.25 0
0.8 0.25 0
0.85 0.25 0
0.9 0.25 0
0.95 0.25 0
1 0.25 0
1.05 0.25 0
1.1 0.25 0
1.15 0.25 0
1.2 0.25 0
1.25 0.25 0
1.3 0.25 0
1.35 0.25 0
1.4 0.25 0
1.45 0.25 0
1.5 0.25 0
1.55 0.25 0
1.6 0.25 0
1.65 0.25 0
1.7 0.25 0
1.75 0.25 0
1.8 0.25 0
1.85 0.25 0
1.9 0.25 0
1.95 0.25 0
2 0.25 0
2.05 0.25 0
2.1 0.25 0
2.15 0.25 0
2.2 0.25 0
2.25 0.25 0
2.3 0.25 0
2.35 0.25 0
2.4 0.25 0
2.45 0.25 0
2.5 0.25 0
2.55 0.25 0
2.6 0.25 0
2.65 0.25 0
2.7 0.25 0
2.75 0.25 0
2.8 0.25 0
2.85 0.25 0
2.9 0.25 0
2.95 0.25 0
3 0.25 0
0 0.3 0
0.05 0.3 0
0.1 0.3 0
0.15 0.3 0
0.2 0.3 0
0.25 0.3 0
0.3 0.3 0
0.35 0.3 0
0.4 0.3 0
0.45 0.3 0
0.5 0.3 0
0.55 0.3 0
0.6 0.3 0
0.65 0.3 0
0.7 0.3 0
0.75 0.3 0
0.8 0.3 0
0.85 0.3 0
0.9 0.3 0
0.95 0.3 0
1 0.3 0
1.05 0.3 0
1.1 0.3 0
1.15 0.3 0
1.2 0.3 0
1.25 0.3 0
1.3 0.3 0
1.35 0.3 0
1.4 0.3 0
1.45 0.3 0
1.5 0.3 0
1.55 0.3 0
1.6 0.3 0
1.65 0.3 0
1.7 0.3 0
1.75 0.3 0
1.8 0.3 0
1.85 0.3 0
1.9 0.3 0
1.95 0.3 0
2 0.3 0
2.05 0.3 0
2.1 0.3 0
2.15 0.3 0
2.2 0.3 0
2.25 0.3 0
2.3 0.3 0
2.35 0.3 0
2.4 0.3 0
2.45 0.3 0
2.5 0.3 0
2.55 0.3 0
2.6 0.3 0
2.65 0.3 0
2.7 0.3 0
2.75 0.3 0
2.8 0.3 0
2.85 0.3 0
2.9 0.3 0
2.95 0.3 0
3 0.3 0
0 0.35 0
0.05 0.35 0
0.1 0.35 0
0.15 0.35 0
0.2 0.35 0
0.25 0.35 0
0.3 0.35 0
0.35 0.35 0
0.4 0.35 0
0.45 0.35 0
0.5 0.35 0
0.55 0.35 0
0.6 0.35 0
0.65 0.35 0
0.7 0.35 0
0.75 0.35 0
0.8 0.35 0
0.85 0.35 0
0.9 0.35 0
0.95 0.35 0
1 0.35 0
1.05 0.35 0
1.1 0.35 0
1.15 0.35 0
1.2 0.35 0
1.25 0.35 0
1.3 0.35 0
1.35 0.35 0
1.4 0.35 0
1.45 0.35 0
1.5 0.35 0
1.55 0.35 0
1.6 0.35 0
1.65 0.35 0
1.7 0.35 0
1.75 0.35 0
1.8 0.35 0
1.85 0.35 0
1.9 0.35 0
1.95 0.35 0
2 0.35 0
2.05 0.35 0
2.1 0.35 0
2.15 0.35 0
2.2 0.35 0
2.25 0.35 0
2.3 0.35 0
2.35 0.35 0
2.4 0.35 0
2.45 0.35 0
2.5 0.35 0
2.55 0.35 0
2.6 0.35 0
2.65 0.35 0
2.7 0.35 0
2.75 0.35 0
2.8 0.35 0
2.85 0.35 0
2.9 0.35 0
2.95 0.35 0
3 0.35 0
0 0.4 0
0.05 0.4 0
0.1 0.4 0
0.15 0.4 0
0.2 0.4 0
0.25 0.4 0
0.3 0.4 0
0.35 0.4 0
0.4 0.4 0
0.45 0.4 0
0.5 0.4 0
0.55 0.4 0
0.6 0.4 0
0.65 0.4 0
0.7 0.4 0
0.75 0.4 0
0.8 0.4 0
0.85 0.4 0
0.9 0.4 0
0.95 0.4 0
1 0.4 0
1.05 0.4 0
1.1 0.4 0
1.15 0.4 0
1.2 0.4 0
1.25 0.4 0
1.3 0.4 0
1.35 0.4 0
1.4 0.4 0
1.45 0.4 0
1.5 0.4 0
1.55 0.4 0
1.6 0.4 0
1.65 0.4 0
1.7 0.4 0
1.75 0.4 0
1.8 0.4 0
1.85 0.4 0
1.9 0.4 0
1.95 0.4 0
2 0.4 0
2.05 0.4 0
2.1 0.4 0
2.15 0.4 0
2.2 0.4 0
2.25 0.4 0
2.3 0.4 0
2.35 0.4 0
2.4 0.4 0
2.45 0.4 0
2.5 0.4 0
2.55 0.4 0
2.6 0.4 0
2.65 0.4 0
2.7 0.4 0
2.75 0.4 0
2.8 0.4 0
2.85 0.4 0
2.9 0.4 0
2.95 0.4 0
3 0.4 0
0 0.45 0
0.05 0.45 0
0.1 0.45 0
0.15 0.45 0
0.2 0.45 0
0.25 0.45 0
0.3 0.45 0
0.35 0.45 0
0.4 0.45 0
0.45 0.45 0
0.5 0.45 0
0.55 0.45 0
0.6 0.45 0
0.65 0.45 0
0.7 0.45 0
0.75 0.45 0
0.8 0.45 0
0.85 0.45 0
0.9 0.45 0
0.95 0.45 0
1 0.45 0
1.05 0.45 0
1.1 0.45 0
1.15 0.45 0
1.2 0.45 0
1.25 0.45 0
1.3 0.45 0
1.35 0.45 0
1.4 0.45 0
1.45 0.45 0
1.5 0.45 0
1.55 0.45 0
1.6 0.45 0
1.65 0.45 0
1.7 0.45 0
1.75 0.45 0
1.8 0.45 0
1.85 0.45 0
1.9 0.45 0
1.95 0.45 0
2 0.45 0
2.05 0.45 0
2.1 0.45 0
2.15 0.45 0
2.2 0.45 0
2.25 0.45 0
2.3 0.45 0
2.35 0.45 0
2.4 0.45 0
2.45 0.45 0
2.5 0.45 0
2.55 0.45 0
2.6 0.45 0
2.65 0.45 0
2.7 0.45 0
2.75 0.45 0
2.8 0.45 0
2.85 0.45 0
2.9 0.45 0
2.95 0.45 0
3 0.45 0
0 0.5 0
0.05 0.5 0
0.1 0.5 0
0.15 0.5 0
0.2 0.5 0
0.25 0.5 0
0.3 0.5 0
0.35 0.5 0
0.4 0.5 0
0.45 0.5 0
0.5 0.5 0
0.55 0.5 0
0.6 0.5 0
0.65 0.5 0
0.7 0.5 0
0.75 0.5 0
0.8 0.5 0
0.85 0.5 0
0.9 0.5 0
0.95 0.5 0
1 0.5 0
1.05 0.5 0
1.1 0.5 0
1.15 0.5 0
1.2 0.5 0
1.25 0.5 0
1.3 0.5 0
1.35 0.5 0
1.4 0.5 0
1.45 0.5 0
1.5 0.5 0
1.55 0.5 0
1.6 0.5 0
1.65 0.5 0
1.7 0.5 0
1.75 0.5 0
1.8 0.5 0
1.85 0.5 0
1.9 0.5 0
1.95 0.5 0
2 0.5 0
2.05 0.5 0
2.1 0.5 0
2.15 0.5 0
2.2 0.5 0
2.25 0.5 0
2.3 0.5 0
2.35 0.5 0
2.4 0.5 0
2.45 0.5 0
2.5 0.5 0
2.55 0.5 0
2.6 0.5 0
2.65 0.5 0
2.7 0.5 0
2.75 0.5 0
2.8 0.5 0
2.85 0.5 0
2.9 0.5 0
2.95 0.5 0
3 0.5 0
0 0.55 0
0.05 0.55 0
0.1 0.55 0
0.15 0.55 0
0.2 0.55 0
0.25 0.55 0
0.3 0.55 0
0.35 0.55 0
0.4 0.55 0
0.45 0.55 0
0.5 0.55 0
0.55 0.55 0
0.6 0.55 0
0.65 0.55 0
0.7 0.55 0
0.75 0.55 0
0.8 0.55 0
0.85 0.55 0
0.9 0.55 0
0.95 0.55 0
1 0.55 0
1.05 0.55 0
1.1 0.55 0
1.15 0.55 0
1.2 0.55 0
1.25 0.55 0
1.3 0.55 0
1.35 0.55 0
1.4 0.55 0
1.45 0.55 0
1.5 0.55 0
1.55 0.55 0
1.6 0.55 0
1.65 0.55 0
1.7 0.55 0
1.75 0.55 0
1.8 0.55 0
1.85 0.55 0
1.9 0.55 0
1.95 0.55 0
2 0.55 0
2.05 0.55 0
2.1 0.55 0
2.15 0.55 0
2.2 0.55 0
2.25 0.55 0
2.3 0.55 0
2.35 0.55 0
2.4 0.55 0
2.45 0.55 0
2.5 0.55 0
2.55 0.55 0
2.6 0.55 0
2.65 0.55 0
2.7 0.55 0
2.75 0.55 0
2.8 0.55 0
2.85 0.55 0
2.9 0.55 0
2.95 0.55 0
3 0.55 0
0 0.6 0
0.05 0.6 0
0.1 0.6 0
0.15 0.6 0
0.2 0.6 0
0.25 0.6 0
0.3 0.6 0
0.35 0.6 0
0.4 0.6 0
0.45 0.6 0
0.5 0.6 0
0.55 0.6 0
0.6 0.6 0
0.65 0.6 0
0.7 0.6 0
0.75 0.6 0
0.8 0.6 0
0.85 0.6 0
0.9 0.6 0
0.95 0.6 0
1 0.6 0
1.05 0.6 0
1.1 0.6 0
1.15 0.6 0
1.2 0.6 0
1.25 0.6 0
1.3 0.6 0
1.35 0.6 0
1.4 0.6 0
1.45 0.6 0
1.5 0.6 0
1.55 0.6 0
1.6 0.6 0
1.65 0.6 0
1.7 0.6 0
1.75 0.6 0
1.8 0.6 0
1.85 0.6 0
1.9 0.6 0
1.95 0.6 0
2 0.6 0
2.05 0.6 0
2.1 0.6 0
2.15 0.6 0
2.2 0.6 0
2.25 0.6 0
2.3 0.6 0
2.35 0.6 0
2.4 0.6 0
2.45 0.6 0
2.5 0.6 0
2.55 0.6 0
2.6 0.6 0
2.65 0.6 0
2.7 0.6 0
2.75 0.6 0
2.8 0.6 0
2.85 0.6 0
2.9 0.6 0
2.95 0.6 0
3 0.6 0
0 0.65 0
0.05 0.65 0
0.1 0.65 0
0.15 0.65 0
0.2 0.65 0
0.25 0.65 0
0.3 0.65 0
0.35 0.65 0
0.4 0.65 0
0.45 0.65 0
0.5 0.65 0
0.55 0.65 0
0.6 0.65 0
0.65 0.65 0
0.7 0.65 0
0.75 0.65 0
0.8 0.65 0
0.85 0.65 0
0.9 0.65 0
0.95 0.65 0
1 0.65 0
1.05 0.65 0
1.1 0.65 0
1.15 0.65 0
1.2 0.65 0
1.25 0.65 0
1.3 0.65 0
1.35 0.65 0
1.4 0.65 0
1.45 0.65 0
1.5 0.65 0
1.55 0.65 0
1.6 0.65 0
1.65 0.65 0
1.7 0.65 0
1.75 0.65 0
1.8 0.65 0
1.85 0.65 0
1.9 0.65 0
1.95 0.65 0
2 0.65 0
2.05 0.65 0
2.1 0.65 0
2.15 0.65 0
2.2 0.65 0
2.25 0.65 0
2.3 0.65 0
2.35 0.65 0
2.4 0.65 0
2.45 0.65 0
2.5 0.65 0
[...]
POINT_DATA 4331
SCALARS u double
LOOKUP_TABLE default
0
0
0
0
0
0
0
0
0
0
0
0
0
0
0
0
0
0
0
0
0
0
0
0
0
0
0
0
0
0
0
0
0
0
0
0
0
0
0
0
0
0
0
0
0
0
0
0
0
0
0
0
0
0
0
0
0
0
0
0
0
2.71975e-005
2.71975e-005
3.25371e-005
3.77365e-005
4.27774e-005
4.76359e-005
5.22838e-005
5.66878e-005
6.08107e-005
6.46108e-005
6.80423e-005
7.1056e-005
7.35993e-005
7.56177e-005
7.70551e-005
7.78559e-005
7.79662e-005
7.73363e-005
7.59222e-005
7.36889e-005
7.06123e-005
6.66821e-005
6.19037e-005
5.63006e-005
4.99157e-005
4.28116e-005
3.50711e-005
2.67954e-005
1.81024e-005
9.12326e-006
-1.37848e-009
-9.12601e-006
-1.81051e-005
-2.67981e-005
-3.50737e-005
-4.28141e-005
-4.99181e-005
-5.6303e-005
-6.1906e-005
-6.66843e-005
-7.06145e-005
-7.36909e-005
-7.59241e-005
-7.73381e-005
-7.7968e-005
-7.78575e-005
-7.70566e-005
-7.56191e-005
-7.36007e-005
-7.10572e-005
-6.80434e-005
-6.46118e-005
-6.08116e-005
-5.66886e-005
-5.22845e-005
-4.76366e-005
-4.27779e-005
-3.7737e-005
-3.25375e-005
-2.71978e-005
-2.71978e-005
2.76971e-005
2.76971e-005
3.31223e-005
3.84267e-005
4.35819e-005
4.85606e-005
5.33325e-005
5.78637e-005
6.21158e-005
6.60462e-005
6.96079e-005
7.27499e-005
7.54177e-005
7.75542e-005
7.91006e-005
7.99977e-005
8.0188e-005
7.96175e-005
7.82382e-005
7.60107e-005
7.29067e-005
6.89125e-005
6.40307e-005
5.82832e-005
5.17123e-005
4.43821e-005
3.63783e-005
2.78068e-005
1.87919e-005
9.47271e-006
-1.39917e-009
-9.4755e-006
-1.87947e-005
-2.78095e-005
-3.63809e-005
-4.43847e-005
-5.17148e-005
-5.82856e-005
-6.40331e-005
-6.89147e-005
-7.29089e-005
-7.60127e-005
-7.82402e-005
-7.96194e-005
-8.01898e-005
-7.99994e-005
-7.91022e-005
-7.75557e-005
-7.54191e-005
-7.27511e-005
-6.9609e-005
-6.60472e-005
-6.21167e-005
-5.78645e-005
-5.33333e-005
-4.85612e-005
-4.35825e-005
-3.84271e-005
-3.31227e-005
-2.76974e-005
-2.76974e-005
2.79954e-005
2.79954e-005
3.34636e-005
3.88193e-005
4.40365e-005
4.90881e-005
5.39439e-005
5.85697e-005
6.29272e-005
6.69732e-005
7.06599e-005
7.39349e-005
7.67418e-005
7.90205e-005
8.07089e-005
8.17436e-005
8.20619e-005
8.16041e-005
8.0316e-005
7.81516e-005
7.50763e-005
7.10701e-005
6.61306e-005
6.02759e-005
5.35465e-005
4.60068e-005
3.77452e-005
2.88734e-005
1.95235e-005
9.8448e-006
-1.41609e-009
-9.84762e-006
-1.95263e-005
-2.88761e-005
-3.77479e-005
-4.60094e-005
-5.3549e-005
-6.02784e-005
-6.6133e-005
-7.10723e-005
-7.50784e-005
-7.81537e-005
-8.0318e-005
-8.1606e-005
-8.20637e-005
-8.17453e-005
-8.07105e-005
-7.9022e-005
-7.67431e-005
-7.39361e-005
-7.0661e-005
-6.69742e-005
-6.29281e-005
-5.85705e-005
-5.39446e-005
-4.90887e-005
-4.4037e-005
-3.88197e-005
-3.3464e-005
-2.79956e-005
-2.79956e-005
2.83794e-005
2.83794e-005
3.3915e-005
3.93468e-005
4.46526e-005
4.98065e-005
5.47795e-005
5.95379e-005
6.40432e-005
6.82521e-005
7.21156e-005
7.55797e-005
7.8585e-005
8.1068e-005
8.29616e-005
8.41962e-005
8.47022e-005
8.44114e-005
8.32606e-005
8.11941e-005
7.81678e-005
7.41524e-005
6.91379e-005
6.31362e-005
5.61847e-005
4.83478e-005
3.9718e-005
3.04145e-005
2.05815e-005
1.03833e-005
-1.43973e-009
-1.03861e-005
-2.05844e-005
-3.04173e-005
-3.97207e-005
-4.83505e-005
-5.61872e-005
-6.31387e-005
-6.91402e-005
-7.41547e-005
-7.81699e-005
-8.11962e-005
-8.32626e-005
-8.44133e-005
-8.47039e-005
-8.41979e-005
-8.29631e-005
-8.10695e-005
-7.85863e-005
-7.55809e-005
-7.21168e-005
-6.82531e-005
-6.40442e-005
-5.95387e-005
-5.47802e-005
-4.98071e-005
-4.46531e-005
-3.93472e-005
-3.39153e-005
-2.83797e-005
-2.83797e-005
2.88482e-005
2.88482e-005
3.44699e-005
4.00005e-005
4.54203e-005
5.0706e-005
5.58297e-005
6.07589e-005
6.54557e-005
6.98763e-005
7.39708e-005
7.7683e-005
8.09505e-005
8.37049e-005
8.5873e-005
8.73775e-005
8.8139e-005
8.80787e-005
8.71208e-005
8.51965e-005
8.22482e-005
7.8234e-005
7.31322e-005
6.69463e-005
5.97082e-005
5.14819e-005
4.23643e-005
3.24853e-005
2.20048e-005
1.11081e-005
-1.4704e-009
-1.11111e-005
-2.20077e-005
-3.24881e-005
-4.23671e-005
-5.14845e-005
-5.97108e-005
-6.69488e-005
-7.31346e-005
-7.82363e-005
-8.22504e-005
-8.51986e-005
-8.71228e-005
-8.80806e-005
-8.81408e-005
-8.73792e-005
-8.58746e-005
-8.37064e-005
-8.09518e-005
-7.76842e-005
-7.39719e-005
-6.98773e-005
-6.54566e-005
-6.07597e-005
-5.58304e-005
-5.07066e-005
-4.54208e-005
-4.00009e-005
-3.44702e-005
-2.88484e-005
-2.88484e-005
2.93925e-005
2.93925e-005
3.5116e-005
4.07648e-005
4.63222e-005
5.17673e-005
5.70744e-005
6.22124e-005
6.71444e-005
7.18266e-005
7.62083e-005
8.02311e-005
8.38289e-005
8.69282e-005
8.9448e-005
9.13016e-005
9.23978e-005
9.26436e-005
9.19473e-005
9.02228e-005
8.73945e-005
8.3403e-005
7.82108e-005
7.18085e-005
6.422e-005
5.55072e-005
4.57721e-005
3.51575e-005
2.38444e-005
1.20459e-005
-1.50819e-009
-1.20489e-005
-2.38474e-005
-3.51604e-005
-4.57749e-005
-5.55099e-005
-6.42227e-005
-7.1811e-005
-7.82132e-005
-8.34053e-005
-8.73968e-005
-9.02249e-005
-9.19493e-005
-9.26455e-005
-9.23996e-005
-9.13033e-005
-8.94496e-005
-8.69296e-005
-8.38303e-005
-8.02323e-005
-7.62094e-005
-7.18276e-005
-6.71453e-005
-6.22132e-005
-5.70751e-005
-5.17679e-005
-4.63227e-005
-4.07652e-005
-3.51163e-005
-2.93927e-005
-2.93927e-005
2.99989e-005
2.99989e-005
3.5837e-005
4.16206e-005
4.73365e-005
5.29667e-005
5.84881e-005
6.3872e-005
6.90828e-005
7.40774e-005
7.88046e-005
8.32041e-005
8.7206e-005
9.07308e-005
9.36892e-005
9.59831e-005
9.7507e-005
9.81505e-005
9.7802e-005
9.63529e-005
9.37041e-005
8.97728e-005
8.44995e-005
7.78569e-005
6.98563e-005
6.05548e-005
5.00593e-005
3.85284e-005
2.61695e-005
1.32326e-005
-1.55298e-009
-1.32357e-005
-2.61725e-005
-3.85313e-005
-5.00622e-005
-6.05575e-005
-6.98589e-005
-7.78594e-005
-8.4502e-005
-8.97751e-005
-9.37064e-005
-9.63551e-005
-9.78041e-005
-9.81525e-005
-9.75089e-005
-9.59848e-005
-9.36908e-005
-9.07323e-005
-8.72073e-005
-8.32053e-005
-7.88057e-005
-7.40784e-005
-6.90836e-005
-6.38728e-005
-5.84888e-005
-5.29672e-005
-4.73369e-005
-4.16209e-005
-3.58372e-005
-2.99991e-005
-2.99991e-005
3.06503e-005
3.06503e-005
3.66123e-005
4.25442e-005
4.84364e-005
5.42747e-005
6.00394e-005
6.57047e-005
7.12373e-005
7.65957e-005
8.17286e-005
8.65746e-005
9.10602e-005
9.50998e-005
9.85948e-005
0.000101434
0.000103497
0.00010465
0.000104757
0.000103683
0.000101296
9.74843e-005
9.21577e-005
8.52632e-005
7.67935e-005
6.67964e-005
5.53821e-005
4.27271e-005
2.90726e-005
1.47165e-005
-1.60419e-009
-1.47197e-005
-2.90758e-005
-4.27302e-005
-5.5385e-005
-6.67992e-005
-7.67962e-005
-8.52658e-005
-9.21602e-005
-9.74867e-005
-0.000101299
-0.000103685
-0.000104759
-0.000104652
-0.000103498
-0.000101436
-9.85965e-005
-9.51012e-005
-9.10615e-005
-8.65758e-005
-8.17297e-005
-7.65966e-005
-7.12381e-005
-6.57054e-005
-6.004e-005
-5.42752e-005
-4.84368e-005
-4.25445e-005
-3.66125e-005
-3.06505e-005
-3.06505e-005
3.13262e-005
3.13262e-005
3.74176e-005
4.35074e-005
4.95902e-005
5.56563e-005
6.16902e-005
6.76701e-005
7.35661e-005
7.93392e-005
8.49397e-005
9.03054e-005
9.53604e-005
0.000100013
0.000104156
0.000107664
0.000110395
0.000112194
0.000112894
0.000112324
0.000110314
0.00010671
0.000101384
9.42448e-005
8.52582e-005
7.44552e-005
6.19457e-005
4.79255e-005
3.26775e-005
1.65623e-005
-1.66028e-009
-1.65656e-005
-3.26807e-005
-4.79286e-005
-6.19487e-005
-7.44581e-005
-8.52609e-005
-9.42474e-005
-0.000101386
-0.000106713
-0.000110317
-0.000112326
-0.000112897
-0.000112196
-0.000110397
-0.000107665
-0.000104158
-0.000100015
-9.53618e-005
-9.03066e-005
-8.49407e-005
-7.93401e-005
-7.35669e-005
-6.76707e-005
-6.16908e-005
-5.56567e-005
-4.95905e-005
-4.35076e-005
-3.74178e-005
-3.13263e-005
-3.13263e-005
3.20025e-005
3.20025e-005
3.82247e-005
4.44775e-005
5.07607e-005
5.70699e-005
6.33951e-005
6.97194e-005
7.60178e-005
8.22554e-005
8.83854e-005
9.4347e-005
0.000100063
0.000105437
0.000110352
0.000114669
0.000118225
0.000120838
0.000122302
0.000122405
0.000120926
0.00011766
0.000112422
0.000105074
9.55393e-005
8.38207e-005
7.002e-005
5.43517e-005
3.71497e-005
1.88571e-005
-1.7177e-009
-1.88605e-005
-3.7153e-005
-5.43549e-005
-7.0023e-005
-8.38237e-005
-9.55421e-005
-0.000105077
-0.000112424
-0.000117662
-0.000120929
-0.000122407
-0.000122305
-0.00012084
-0.000118228
-0.000114671
-0.000110354
-0.000105438
-0.000100064
-9.43482e-005
-8.83864e-005
-8.22562e-005
-7.60185e-005
-6.97199e-005
-6.33956e-005
-5.70703e-005
-5.0761e-005
-4.44777e-005
-3.82249e-005
-3.20026e-005
-3.20026e-005
3.26521e-005
3.26521e-005
3.90013e-005
4.54171e-005
5.19053e-005
5.84677e-005
6.51008e-005
7.17945e-005
7.85302e-005
8.52792e-005
9.19997e-005
9.86344e-005
0.000105107
0.000111319
0.000117146
0.000122435
0.000127001
0.000130628
0.000133073
0.000134066
0.000133327
0.00013058
0.00012557
0.000118091
0.000108004
9.52686e-005
7.99619e-005
6.23118e-005
4.27125e-005
2.17183e-005
-1.76888e-009
-2.17218e-005
-4.27159e-005
-6.2315e-005
-7.9965e-005
-9.52715e-005
-0.000108007
-0.000118093
-0.000125573
-0.000130582
-0.00013333
-0.000134068
-0.000133075
-0.000130631
-0.000127003
-0.000122436
-0.000117148
-0.00011132
-0.000105108
-9.86355e-005
-9.20006e-005
-8.52799e-005
-7.85308e-005
-7.1795e-005
-6.51012e-005
-5.8468e-005
-5.19055e-005
-4.54172e-005
-3.90014e-005
-3.26521e-005
-3.26521e-005
3.32445e-005
3.32445e-005
3.97114e-005
4.62842e-005
5.29756e-005
5.97948e-005
6.6746e-005
7.38275e-005
8.10294e-005
8.83313e-005
9.56997e-005
0.000103084
0.000110412
0.000117586
0.000124478
0.000130923
0.000136714
0.000141602
0.000145294
0.000147459
0.000147736
0.000145762
0.000141188
0.000133714
0.000123119
0.000109287
9.22476e-005
7.22212e-005
4.96706e-005
2.53053e-005
-1.79771e-009
-2.53088e-005
-4.96741e-005
-7.22245e-005
-9.22507e-005
-0.00010929
-0.000123122
-0.000133717
-0.000141191
-0.000145765
-0.000147739
-0.000147461
-0.000145297
-0.000141605
-0.000136716
-0.000130925
-0.00012448
-0.000117588
-0.000110413
-0.000103085
-9.57005e-005
-8.8332e-005
-8.10299e-005
-7.38279e-005
-6.67463e-005
-5.9795e-005
-5.29758e-005
-4.62843e-005
-3.97114e-005
-3.32445e-005
-3.32445e-005
3.37466e-005
3.37466e-005
4.03156e-005
4.70327e-005
5.39183e-005
6.09898e-005
6.82609e-005
7.57401e-005
8.34285e-005
9.13171e-005
9.93839e-005
0.000107589
0.00011587
0.000124136
0.000132258
0.000140064
0.00014733
0.000153772
0.000159044
0.000162738
0.000164398
0.000163544
0.000159705
0.000152459
0.00014147
0.000126515
0.00010752
8.4655e-005
5.84438e-005
2.98343e-005
-1.77014e-009
-2.98378e-005
-5.84473e-005
-8.46583e-005
-0.000107523
-0.000126518
-0.000141473
-0.000152462
-0.000159708
-0.000163547
-0.000164401
-0.000162741
-0.000159046
-0.000153775
-0.000147332
-0.000140066
-0.00013226
-0.000124137
-0.000115872
-0.00010759
-9.93847e-005
-9.13177e-005
-8.34289e-005
-7.57404e-005
-6.82611e-005
-6.09899e-005
-5.39183e-005
-4.70327e-005
-4.03155e-005
-3.37465e-005
-3.37465e-005
3.41229e-005
3.41229e-005
4.07716e-005
4.76128e-005
5.46749e-005
6.19851e-005
6.95678e-005
7.74437e-005
8.56273e-005
9.41248e-005
0.00010293
0.000112019
0.000121345
0.000130829
0.000140353
0.000149746
0.00015877
0.000167112
0.00017437
0.00018005
0.000183574
0.000184312
0.000181628
0.000174946
0.000163788
0.000147782
0.000126663
0.000100436
6.96158e-005
3.559e-005
-1.61416e-009
-3.55933e-005
-6.96192e-005
-0.000100439
-0.000126667
-0.000147785
-0.000163792
-0.000174949
-0.000181632
-0.000184315
-0.000183578
-0.000180053
-0.000174373
-0.000167115
-0.000158772
-0.000149748
-0.000140355
-0.00013083
-0.000121346
-0.000112019
-0.00010293
-9.41252e-005
-8.56276e-005
-7.74438e-005
-6.95679e-005
-6.19851e-005
-5.46748e-005
-4.76127e-005
-4.07715e-005
-3.41228e-005
-3.41228e-005
3.43363e-005
3.43363e-005
4.10352e-005
4.79718e-005
5.51836e-005
6.27079e-005
7.05816e-005
7.88394e-005
8.75123e-005
9.66249e-005
0.000106192
0.000116211
0.00012666
0.000137483
0.000148581
0.000159795
0.000170892
0.000181536
0.000191275
0.000199517
0.000205537
0.000208501
0.00020755
0.000201908
0.000190956
0.00017416
0.000150917
0.000120808
8.39948e-005
4.29121e-005
-1.18277e-009
-4.29148e-005
-8.3998e-005
-0.000120812
-0.00015092
-0.000174164
-0.000190961
-0.000201912
-0.000207554
-0.000208505
-0.000205541
-0.000199521
-0.000191278
-0.000181539
-0.000170894
-0.000159797
-0.000148582
-0.000137484
-0.000126661
-0.000116212
-0.000106192
-9.66251e-005
-8.75124e-005
-7.88393e-005
-7.05815e-005
-6.27078e-005
-5.51834e-005
-4.79716e-005
-4.1035e-005
-3.43361e-005
-3.43361e-005
3.43491e-005
3.43491e-005
4.10611e-005
4.80557e-005
5.53796e-005
6.30814e-005
7.12112e-005
7.98199e-005
8.89576e-005
9.8671e-005
0.000109
0.000119974
0.000131601
0.000143861
0.000156691
0.000169963
0.000183466
0.000196866
0.000209676
0.000221208
0.000230554
0.000236605
0.000238163
0.00023418
0.000223969
0.000206987
0.000182036
0.000147888
0.000102644
5.20656e-005
-2.15803e-010
-5.20667e-005
-0.000102647
-0.000147891
-0.00018204
-0.000206992
-0.000223974
-0.000234185
-0.000238168
-0.000236609
-0.000230558
-0.000221212
-0.000209679
-0.000196869
-0.000183468
-0.000169965
-0.000156692
-0.000143862
-0.000131602
-0.000119975
-0.000109001
-9.8671e-005
-8.89574e-005
-7.98197e-005
-7.1211e-005
-6.30811e-005
-5.53793e-005
-4.80554e-005
-4.10608e-005
-3.43488e-005
-3.43488e-005
3.41238e-005
3.41238e-005
4.08043e-005
4.78103e-005
5.51978e-005
6.30269e-005
7.1362e-005
8.02716e-005
8.98271e-005
0.000100101
0.000111165
0.000123084
0.00013591
0.000149671
0.000164357
0.000179901
0.000196141
0.000212787
0.000229353
0.000245083
0.000258867
0.0002692
0.000274317
0.000272679
0.000263752
0.000247782
0.000222354
0.000186063
0.000126632
6.27072e-005
1.52133e-009
-6.27051e-005
-0.000126633
-0.000186065
-0.00022236
-0.00024779
-0.00026376
-0.000272686
-0.000274323
-0.000269205
-0.000258872
-0.000245088
-0.000229357
-0.00021279
-0.000196144
-0.000179902
-0.000164359
-0.000149671
-0.00013591
-0.000123084
-0.000111165
-0.000100101
-8.98267e-005
-8.02712e-005
-7.13616e-005
-6.30265e-005
-5.51974e-005
-4.78099e-005
-4.08039e-005
-3.41234e-005
-3.41234e-005
3.36249e-005
3.36249e-005
4.0222e-005
4.71835e-005
5.45744e-005
6.24664e-005
7.09384e-005
8.00774e-005
8.99779e-005
0.000100741
0.000112475
0.000125287
0.000139283
0.000154554
0.000171168
0.000189141
0.000208412
0.000228788
0.000249866
0.000270904
0.000290629
0.000307011
0.000317226
0.000318466
0.000310577
0.000298036
0.000273536
0.000247308
0.000155104
7.21195e-005
3.00823e-009
-7.21123e-005
-0.000155097
-0.00024731
-0.00027355
-0.000298048
-0.000310589
-0.000318475
-0.000317233
-0.000307017
-0.000290634
-0.000270909
-0.00024987
-0.000228791
-0.000208414
-0.000189142
-0.000171168
-0.000154555
-0.000139283
-0.000125287
-0.000112474
-0.000100741
-8.99773e-005
-8.00768e-005
-7.09378e-005
-6.24657e-005
-5.45738e-005
-4.71829e-005
-4.02214e-005
-3.36244e-005
-3.36244e-005
3.28204e-005
3.28204e-005
3.92751e-005
4.61273e-005
5.345e-005
6.13258e-005
6.98479e-005
7.91217e-005
8.92657e-005
0.000100412
0.000112706
0.000126306
0.00014138
0.000158096
0.000176618
0.000197083
0.000219577
0.000244087
0.00027042
0.000298038
0.000325732
0.000350989
0.000369109
0.000373382
0.000362057
0.000360232
0.000326457
0.000367669
0.000173504
7.01976e-005
1.14171e-009
-7.01921e-005
-0.000173498
-0.000367683
-0.000326479
-0.000360241
-0.000362073
-0.000373393
-0.000369115
-0.000350995
-0.000325738
-0.000298043
-0.000270423
-0.000244089
-0.000219579
-0.000197084
-0.000176618
-0.000158096
-0.000141379
-0.000126306
-0.000112705
-0.000100411
-8.92648e-005
-7.91208e-005
-6.9847e-005
-6.1325e-005
-5.34493e-005
-4.61266e-005
-3.92745e-005
-3.28198e-005
-3.28198e-005
3.16832e-005
3.16832e-005
3.79308e-005
4.46006e-005
5.17726e-005
5.95388e-005
6.80057e-005
7.7296e-005
8.75513e-005
9.89345e-005
0.000111632
0.000125853
0.000141834
0.000159833
0.000180126
0.000202997
0.000228726
0.000257563
0.000289687
0.000325096
0.000363272
0.0004021
0.000434837
0.00044387
0.000404181
0.000451456
0.000312379
0.000348591
0.000151504
6.01211e-005
-1.16915e-008
-6.01514e-005
-0.000151553
-0.000348642
-0.000312422
-0.000451497
-0.000404213
-0.000443883
-0.000434844
-0.000402107
-0.000363277
-0.0003251
-0.000289689
-0.000257565
-0.000228727
-0.000202997
-0.000180125
-0.000159832
-0.000141833
-0.000125852
-0.00011163
-9.89332e-005
-8.75501e-005
-7.72948e-005
-6.80046e-005
-5.95378e-005
-5.17717e-005
-4.45998e-005
-3.79301e-005
-3.16826e-005
-3.16826e-005
3.01934e-005
3.01934e-005
3.61642e-005
4.25717e-005
4.95009e-005
5.70513e-005
6.53401e-005
7.45052e-005
8.47091e-005
9.61433e-005
0.000109033
0.00012364
0.00014027
0.000159276
0.000181055
0.000206053
0.000234768
0.000267753
0.000305668
0.000349387
0.000400157
0.000459301
0.000524231
0.000559249
0.000369687
0.000389182
0.000177375
7.46463e-006
6.29396e-005
4.19418e-005
-2.15781e-008
-4.19944e-005
-6.3006e-005
-7.51306e-006
-0.000177429
-0.000389276
-0.000369779
-0.000559322
-0.000524248
-0.000459302
-0.00040016
-0.000349388
-0.000305669
-0.000267753
-0.000234767
-0.000206052
-0.000181053
-0.000159274
-0.000140269
-0.000123638
-0.000109031
-9.61416e-005
-8.47075e-005
-7.45037e-005
-6.53388e-005
-5.70501e-005
-4.94998e-005
-4.25708e-005
-3.61634e-005
-3.01926e-005
-3.01926e-005
2.83395e-005
2.83395e-005
3.39609e-005
4.00212e-005
4.6608e-005
5.38254e-005
6.17982e-005
7.06755e-005
8.06367e-005
9.1897e-005
0.000104716
0.000119403
0.000136332
0.000155945
0.000178764
0.000205395
0.000236539
0.000273013
0.000315845
0.000366626
0.00042867
0.000510732
0.000638431
0.000512576
0.000243174
5.58197e-005
3.7956e-005
-0.000150958
-9.95461e-006
1.47778e-005
-1.16253e-008
-1.47973e-005
9.94869e-006
0.000150944
-3.79927e-005
-5.58723e-005
-0.000243267
-0.000512653
-0.000638466
-0.000510735
-0.000428668
-0.000366626
-0.000315845
-0.000273012
-0.000236537
-0.000205393
-0.000178761
-0.000155943
-0.00013633
-0.000119401
-0.000104713
-9.1895e-005
-8.06348e-005
-7.06739e-005
-6.17967e-005
-5.38241e-005
-4.66068e-005
-4.00202e-005
-3.396e-005
-2.83387e-005
-2.83387e-005
2.61204e-005
2.61204e-005
3.13187e-005
3.69443e-005
4.30843e-005
4.98442e-005
5.73517e-005
6.57622e-005
7.52651e-005
8.60926e-005
9.85296e-005
0.000112926
0.000129711
0.00014941
0.00017266
0.000200223
0.00023298
0.000271916
0.000318075
0.000372605
0.000437206
0.000516197
0.000624686
0.000206396
0.000155564
-7.35433e-005
-3.18358e-006
-4.54574e-005
-1.60725e-005
-9.32596e-007
3.10206e-009
9.44255e-007
1.60944e-005
4.54655e-005
3.18877e-006
7.35514e-005
-0.000155592
-0.000206486
-0.000624889
-0.000516252
-0.000437209
-0.000372607
-0.000318076
-0.000271915
-0.000232978
-0.00020022
-0.000172657
-0.000149407
-0.000129708
-0.000112923
-9.85269e-005
-8.60903e-005
-7.5263e-005
-6.57603e-005
-5.73501e-005
-4.98428e-005
-4.3083e-005
-3.69431e-005
-3.13177e-005
-2.61195e-005
-2.61195e-005
2.35464e-005
2.35464e-005
2.82492e-005