# vtk DataFile Version 3.0
vtk output
ASCII
DATASET STRUCTURED_GRID
DIMENSIONS 61 71 1
POINTS 4331 double
0 0 0
0.05 0 0
0.1 0 0
0.15 0 0
0.2 0 0
0.25 0 0
0.3 0 0
0.35 0 0
0.4 0 0
0.45 0 0
0.5 0 0
0.55 0 0
0.6 0 0
0.65 0 0
0.7 0 0
0.75 0 0
0.8 0 0
0.85 0 0
0.9 0 0
0.95 0 0
1 0 0
1.05 0 0
1.1 0 0
1.15 0 0
1.2 0 0
1.25 0 0
1.3 0 0
1.35 0 0
1.4 0 0
1.45 0 0
1.5 0 0
1.55 0 0
1.6 0 0
1.65 0 0
1.7 0 0
1.75 0 0
1.8 0 0
1.85 0 0
1.9 0 0
1.95 0 0
2 0 0
2.05 0 0
2.1 0 0
2.15 0 0
2.2 0 0
2.25 0 0
2.3 0 0
2.35 0 0
2.4 0 0
2.45 0 0
2.5 0 0
2.55 0 0
2.6 0 0
2.65 0 0
2.7 0 0
2.75 0 0
2.8 0 0
2.85 0 0
2.9 0 0
2.95 0 0
3 0 0
0 0.05 0
0.05 0.05 0
0.1 0.05 0
0.15 0.05 0
0.2 0.05 0
0.25 0.05 0
0.3 0.05 0
0.35 0.05 0
0.4 0.05 0
0.45 0.05 0
0.5 0.05 0
0.55 0.05 0
0.6 0.05 0
0.65 0.05 0
0.7 0.05 0
0.75 0.05 0
0.8 0.05 0
0.85 0.05 0
0.9 0.05 0
0.95 0.05 0
1 0.05 0
1.05 0.05 0
1.1 0.05 0
1.15 0.05 0
1.2 0.05 0
1.25 0.05 0
1.3 0.05 0
1.35 0.05 0
1.4 0.05 0
1.45 0.05 0
1.5 0.05 0
1.55 0.05 0
1.6 0.05 0
1.65 0.05 0
1.7 0.05 0
1.75 0.05 0
1.8 0.05 0
1.85 0.05 0
1.9 0.05 0
1.95 0.05 0
2 0.05 0
2.05 0.05 0
2.1 0.05 0
2.15 0.05 0
2.2 0.05 0
2.25 0.05 0
2.3 0.05 0
2.35 0.05 0
2.4 0.05 0
2.45 0.05 0
2.5 0.05 0
2.55 0.05 0
2.6 0.05 0
2.65 0.05 0
2.7 0.05 0
2.75 0.05 0
2.8 0.05 0
2.85 0.05 0
2.9 0.05 0
2.95 0.05 0
3 0.05 0
0 0.1 0
0.05 0.1 0
0.1 0.1 0
0.15 0.1 0
0.2 0.1 0
0.25 0.1 0
0.3 0.1 0
0.35 0.1 0
0.4 0.1 0
0.45 0.1 0
0.5 0.1 0
0.55 0.1 0
0.6 0.1 0
0.65 0.1 0
0.7 0.1 0
0.75 0.1 0
0.8 0.1 0
0.85 0.1 0
0.9 0.1 0
0.95 0.1 0
1 0.1 0
1.05 0.1 0
1.1 0.1 0
1.15 0.1 0
1.2 0.1 0
1.25 0.1 0
1.3 0.1 0
1.35 0.1 0
1.4 0.1 0
1.45 0.1 0
1.5 0.1 0
1.55 0.1 0
1.6 0.1 0
1.65 0.1 0
1.7 0.1 0
1.75 0.1 0
1.8 0.1 0
1.85 0.1 0
1.9 0.1 0
1.95 0.1 0
2 0.1 0
2.05 0.1 0
2.1 0.1 0
2.15 0.1 0
2.2 0.1 0
2.25 0.1 0
2.3 0.1 0
2.35 0.1 0
2.4 0.1 0
2.45 0.1 0
2.5 0.1 0
2.55 0.1 0
2.6 0.1 0
2.65 0.1 0
2.7 0.1 0
2.75 0.1 0
2.8 0.1 0
2.85 0.1 0
2.9 0.1 0
2.95 0.1 0
3 0.1 0
0 0.15 0
0.05 0.15 0
0.1 0.15 0
0.15 0.15 0
0.2 0.15 0
0.25 0.15 0
0.3 0.15 0
0.35 0.15 0
0.4 0.15 0
0.45 0.15 0
0.5 0.15 0
0.55 0.15 0
0.6 0.15 0
0.65 0.15 0
0.7 0.15 0
0.75 0.15 0
0.8 0.15 0
0.85 0.15 0
0.9 0.15 0
0.95 0.15 0
1 0.15 0
1.05 0.15 0
1.1 0.15 0
1.15 0.15 0
1.2 0.15 0
1.25 0.15 0
1.3 0.15 0
1.35 0.15 0
1.4 0.15 0
1.45 0.15 0
1.5 0.15 0
1.55 0.15 0
1.6 0.15 0
1.65 0.15 0
1.7 0.15 0
1.75 0.15 0
1.8 0.15 0
1.85 0.15 0
1.9 0.15 0
1.95 0.15 0
2 0.15 0
2.05 0.15 0
2.1 0.15 0
2.15 0.15 0
2.2 0.15 0
2.25 0.15 0
2.3 0.15 0
2.35 0.15 0
2.4 0.15 0
2.45 0.15 0
2.5 0.15 0
2.55 0.15 0
2.6 0.15 0
2.65 0.15 0
2.7 0.15 0
2.75 0.15 0
2.8 0.15 0
2.85 0.15 0
2.9 0.15 0
2.95 0.15 0
3 0.15 0
0 0.2 0
0.05 0.2 0
0.1 0.2 0
0.15 0.2 0
0.2 0.2 0
0.25 0.2 0
0.3 0.2 0
0.35 0.2 0
0.4 0.2 0
0.45 0.2 0
0.5 0.2 0
0.55 0.2 0
0.6 0.2 0
0.65 0.2 0
0.7 0.2 0
0.75 0.2 0
0.8 0.2 0
0.85 0.2 0
0.9 0.2 0
0.95 0.2 0
1 0.2 0
1.05 0.2 0
1.1 0.2 0
1.15 0.2 0
1.2 0.2 0
1.25 0.2 0
1.3 0.2 0
1.35 0.2 0
1.4 0.2 0
1.45 0.2 0
1.5 0.2 0
1.55 0.2 0
1.6 0.2 0
1.65 0.2 0
1.7 0.2 0
1.75 0.2 0
1.8 0.2 0
1.85 0.2 0
1.9 0.2 0
1.95 0.2 0
2 0.2 0
2.05 0.2 0
2.1 0.2 0
2.15 0.2 0
2.2 0.2 0
2.25 0.2 0
2.3 0.2 0
2.35 0.2 0
2.4 0.2 0
2.45 0.2 0
2.5 0.2 0
2.55 0.2 0
2.6 0.2 0
2.65 0.2 0
2.7 0.2 0
2.75 0.2 0
2.8 0.2 0
2.85 0.2 0
2.9 0.2 0
2.95 0.2 0
3 0.2 0
0 0.25 0
0.05 0.25 0
0.1 0.25 0
0.15 0.25 0
0.2 0.25 0
0.25 0.25 0
0.3 0.25 0
0.35 0.25 0
0.4 0.25 0
0.45 0.25 0
0.5 0.25 0
0.55 0.25 0
0.6 0.25 0
0.65 0.25 0
0.7 0.25 0
0.75 0.25 0
0.8 0.25 0
0.85 0.25 0
0.9 0.25 0
0.95 0.25 0
1 0.25 0
1.05 0.25 0
1.1 0.25 0
1.15 0.25 0
1.2 0.25 0
1.25 0.25 0
1.3 0.25 0
1.35 0.25 0
1.4 0.25 0
1.45 0.25 0
1.5 0.25 0
1.55 0.25 0
1.6 0.25 0
1.65 0.25 0
1.7 0.25 0
1.75 0.25 0
1.8 0.25 0
1.85 0.25 0
1.9 0.25 0
1.95 0.25 0
2 0.25 0
2.05 0.25 0
2.1 0.25 0
2.15 0.25 0
2.2 0.25 0
2.25 0.25 0
2.3 0.25 0
2.35 0.25 0
2.4 0.25 0
2.45 0.25 0
2.5 0.25 0
2.55 0.25 0
2.6 0.25 0
2.65 0.25 0
2.7 0.25 0
2.75 0.25 0
2.8 0.25 0
2.85 0.25 0
2.9 0.25 0
2.95 0.25 0
3 0.25 0
0 0.3 0
0.05 0.3 0
0.1 0.3 0
0.15 0.3 0
0.2 0.3 0
0.25 0.3 0
0.3 0.3 0
0.35 0.3 0
0.4 0.3 0
0.45 0.3 0
0.5 0.3 0
0.55 0.3 0
0.6 0.3 0
0.65 0.3 0
0.7 0.3 0
0.75 0.3 0
0.8 0.3 0
0.85 0.3 0
0.9 0.3 0
0.95 0.3 0
1 0.3 0
1.05 0.3 0
1.1 0.3 0
1.15 0.3 0
1.2 0.3 0
1.25 0.3 0
1.3 0.3 0
1.35 0.3 0
1.4 0.3 0
1.45 0.3 0
1.5 0.3 0
1.55 0.3 0
1.6 0.3 0
1.65 0.3 0
1.7 0.3 0
1.75 0.3 0
1.8 0.3 0
1.85 0.3 0
1.9 0.3 0
1.95 0.3 0
2 0.3 0
2.05 0.3 0
2.1 0.3 0
2.15 0.3 0
2.2 0.3 0
2.25 0.3 0
2.3 0.3 0
2.35 0.3 0
2.4 0.3 0
2.45 0.3 0
2.5 0.3 0
2.55 0.3 0
2.6 0.3 0
2.65 0.3 0
2.7 0.3 0
2.75 0.3 0
2.8 0.3 0
2.85 0.3 0
2.9 0.3 0
2.95 0.3 0
3 0.3 0
0 0.35 0
0.05 0.35 0
0.1 0.35 0
0.15 0.35 0
0.2 0.35 0
0.25 0.35 0
0.3 0.35 0
0.35 0.35 0
0.4 0.35 0
0.45 0.35 0
0.5 0.35 0
0.55 0.35 0
0.6 0.35 0
0.65 0.35 0
0.7 0.35 0
0.75 0.35 0
0.8 0.35 0
0.85 0.35 0
0.9 0.35 0
0.95 0.35 0
1 0.35 0
1.05 0.35 0
1.1 0.35 0
1.15 0.35 0
1.2 0.35 0
1.25 0.35 0
1.3 0.35 0
1.35 0.35 0
1.4 0.35 0
1.45 0.35 0
1.5 0.35 0
1.55 0.35 0
1.6 0.35 0
1.65 0.35 0
1.7 0.35 0
1.75 0.35 0
1.8 0.35 0
1.85 0.35 0
1.9 0.35 0
1.95 0.35 0
2 0.35 0
2.05 0.35 0
2.1 0.35 0
2.15 0.35 0
2.2 0.35 0
2.25 0.35 0
2.3 0.35 0
2.35 0.35 0
2.4 0.35 0
2.45 0.35 0
2.5 0.35 0
2.55 0.35 0
2.6 0.35 0
2.65 0.35 0
2.7 0.35 0
2.75 0.35 0
2.8 0.35 0
2.85 0.35 0
2.9 0.35 0
2.95 0.35 0
3 0.35 0
0 0.4 0
0.05 0.4 0
0.1 0.4 0
0.15 0.4 0
0.2 0.4 0
0.25 0.4 0
0.3 0.4 0
0.35 0.4 0
0.4 0.4 0
0.45 0.4 0
0.5 0.4 0
0.55 0.4 0
0.6 0.4 0
0.65 0.4 0
0.7 0.4 0
0.75 0.4 0
0.8 0.4 0
0.85 0.4 0
0.9 0.4 0
0.95 0.4 0
1 0.4 0
1.05 0.4 0
1.1 0.4 0
1.15 0.4 0
1.2 0.4 0
1.25 0.4 0
1.3 0.4 0
1.35 0.4 0
1.4 0.4 0
1.45 0.4 0
1.5 0.4 0
1.55 0.4 0
1.6 0.4 0
1.65 0.4 0
1.7 0.4 0
1.75 0.4 0
1.8 0.4 0
1.85 0.4 0
1.9 0.4 0
1.95 0.4 0
2 0.4 0
2.05 0.4 0
2.1 0.4 0
2.15 0.4 0
2.2 0.4 0
2.25 0.4 0
2.3 0.4 0
2.35 0.4 0
2.4 0.4 0
2.45 0.4 0
2.5 0.4 0
2.55 0.4 0
2.6 0.4 0
2.65 0.4 0
2.7 0.4 0
2.75 0.4 0
2.8 0.4 0
2.85 0.4 0
2.9 0.4 0
2.95 0.4 0
3 0.4 0
0 0.45 0
0.05 0.45 0
0.1 0.45 0
0.15 0.45 0
0.2 0.45 0
0.25 0.45 0
0.3 0.45 0
0.35 0.45 0
0.4 0.45 0
0.45 0.45 0
0.5 0.45 0
0.55 0.45 0
0.6 0.45 0
0.65 0.45 0
0.7 0.45 0
0.75 0.45 0
0.8 0.45 0
0.85 0.45 0
0.9 0.45 0
0.95 0.45 0
1 0.45 0
1.05 0.45 0
1.1 0.45 0
1.15 0.45 0
1.2 0.45 0
1.25 0.45 0
1.3 0.45 0
1.35 0.45 0
1.4 0.45 0
1.45 0.45 0
1.5 0.45 0
1.55 0.45 0
1.6 0.45 0
1.65 0.45 0
1.7 0.45 0
1.75 0.45 0
1.8 0.45 0
1.85 0.45 0
1.9 0.45 0
1.95 0.45 0
2 0.45 0
2.05 0.45 0
2.1 0.45 0
2.15 0.45 0
2.2 0.45 0
2.25 0.45 0
2.3 0.45 0
2.35 0.45 0
2.4 0.45 0
2.45 0.45 0
2.5 0.45 0
2.55 0.45 0
2.6 0.45 0
2.65 0.45 0
2.7 0.45 0
2.75 0.45 0
2.8 0.45 0
2.85 0.45 0
2.9 0.45 0
2.95 0.45 0
3 0.45 0
0 0.5 0
0.05 0.5 0
0.1 0.5 0
0.15 0.5 0
0.2 0.5 0
0.25 0.5 0
0.3 0.5 0
0.35 0.5 0
0.4 0.5 0
0.45 0.5 0
0.5 0.5 0
0.55 0.5 0
0.6 0.5 0
0.65 0.5 0
0.7 0.5 0
0.75 0.5 0
0.8 0.5 0
0.85 0.5 0
0.9 0.5 0
0.95 0.5 0
1 0.5 0
1.05 0.5 0
1.1 0.5 0
1.15 0.5 0
1.2 0.5 0
1.25 0.5 0
1.3 0.5 0
1.35 0.5 0
1.4 0.5 0
1.45 0.5 0
1.5 0.5 0
1.55 0.5 0
1.6 0.5 0
1.65 0.5 0
1.7 0.5 0
1.75 0.5 0
1.8 0.5 0
1.85 0.5 0
1.9 0.5 0
1.95 0.5 0
2 0.5 0
2.05 0.5 0
2.1 0.5 0
2.15 0.5 0
2.2 0.5 0
2.25 0.5 0
2.3 0.5 0
2.35 0.5 0
2.4 0.5 0
2.45 0.5 0
2.5 0.5 0
2.55 0.5 0
2.6 0.5 0
2.65 0.5 0
2.7 0.5 0
2.75 0.5 0
2.8 0.5 0
2.85 0.5 0
2.9 0.5 0
2.95 0.5 0
3 0.5 0
0 0.55 0
0.05 0.55 0
0.1 0.55 0
0.15 0.55 0
0.2 0.55 0
0.25 0.55 0
0.3 0.55 0
0.35 0.55 0
0.4 0.55 0
0.45 0.55 0
0.5 0.55 0
0.55 0.55 0
0.6 0.55 0
0.65 0.55 0
0.7 0.55 0
0.75 0.55 0
0.8 0.55 0
0.85 0.55 0
0.9 0.55 0
0.95 0.55 0
1 0.55 0
1.05 0.55 0
1.1 0.55 0
1.15 0.55 0
1.2 0.55 0
1.25 0.55 0
1.3 0.55 0
1.35 0.55 0
1.4 0.55 0
1.45 0.55 0
1.5 0.55 0
1.55 0.55 0
1.6 0.55 0
1.65 0.55 0
1.7 0.55 0
1.75 0.55 0
1.8 0.55 0
1.85 0.55 0
1.9 0.55 0
1.95 0.55 0
2 0.55 0
2.05 0.55 0
2.1 0.55 0
2.15 0.55 0
2.2 0.55 0
2.25 0.55 0
2.3 0.55 0
2.35 0.55 0
2.4 0.55 0
2.45 0.55 0
2.5 0.55 0
2.55 0.55 0
2.6 0.55 0
2.65 0.55 0
2.7 0.55 0
2.75 0.55 0
2.8 0.55 0
2.85 0.55 0
2.9 0.55 0
2.95 0.55 0
3 0.55 0
0 0.6 0
0.05 0.6 0
0.1 0.6 0
0.15 0.6 0
0.2 0.6 0
0.25 0.6 0
0.3 0.6 0
0.35 0.6 0
0.4 0.6 0
0.45 0.6 0
0.5 0.6 0
0.55 0.6 0
0.6 0.6 0
0.65 0.6 0
0.7 0.6 0
0.75 0.6 0
0.8 0.6 0
0.85 0.6 0
0.9 0.6 0
0.95 0.6 0
1 0.6 0
1.05 0.6 0
1.1 0.6 0
1.15 0.6 0
1.2 0.6 0
1.25 0.6 0
1.3 0.6 0
1.35 0.6 0
1.4 0.6 0
1.45 0.6 0
1.5 0.6 0
1.55 0.6 0
1.6 0.6 0
1.65 0.6 0
1.7 0.6 0
1.75 0.6 0
1.8 0.6 0
1.85 0.6 0
1.9 0.6 0
1.95 0.6 0
2 0.6 0
2.05 0.6 0
2.1 0.6 0
2.15 0.6 0
2.2 0.6 0
2.25 0.6 0
2.3 0.6 0
2.35 0.6 0
2.4 0.6 0
2.45 0.6 0
2.5 0.6 0
2.55 0.6 0
2.6 0.6 0
2.65 0.6 0
2.7 0.6 0
2.75 0.6 0
2.8 0.6 0
2.85 0.6 0
2.9 0.6 0
2.95 0.6 0
3 0.6 0
0 0.65 0
0.05 0.65 0
0.1 0.65 0
0.15 0.65 0
0.2 0.65 0
0.25 0.65 0
0.3 0.65 0
0.35 0.65 0
0.4 0.65 0
0.45 0.65 0
0.5 0.65 0
0.55 0.65 0
0.6 0.65 0
0.65 0.65 0
0.7 0.65 0
0.75 0.65 0
0.8 0.65 0
0.85 0.65 0
0.9 0.65 0
0.95 0.65 0
1 0.65 0
1.05 0.65 0
1.1 0.65 0
1.15 0.65 0
1.2 0.65 0
1.25 0.65 0
1.3 0.65 0
1.35 0.65 0
1.4 0.65 0
1.45 0.65 0
1.5 0.65 0
1.55 0.65 0
1.6 0.65 0
1.65 0.65 0
1.7 0.65 0
1.75 0.65 0
1.8 0.65 0
1.85 0.65 0
1.9 0.65 0
1.95 0.65 0
2 0.65 0
2.05 0.65 0
2.1 0.65 0
2.15 0.65 0
2.2 0.65 0
2.25 0.65 0
2.3 0.65 0
2.35 0.65 0
2.4 0.65 0
2.45 0.65 0
2.5 0.65 0
[...]
POINT_DATA 4331
SCALARS u double
LOOKUP_TABLE default
0
0
0
0
0
0
0
0
0
0
0
0
0
0
0
0
0
0
0
0
0
0
0
0
0
0
0
0
0
0
0
0
0
0
0
0
0
0
0
0
0
0
0
0
0
0
0
0
0
0
0
0
0
0
0
0
0
0
0
0
0
5.90503e-006
5.90503e-006
8.30295e-006
1.06585e-005
1.29596e-005
1.51932e-005
1.73446e-005
1.93982e-005
2.13363e-005
2.31404e-005
2.479e-005
2.62637e-005
2.75388e-005
2.85917e-005
2.93987e-005
2.9936e-005
3.01809e-005
3.01125e-005
2.97122e-005
2.89654e-005
2.7862e-005
2.63978e-005
2.45753e-005
2.24046e-005
1.99037e-005
1.70992e-005
1.40262e-005
1.07274e-005
7.25244e-006
3.65681e-006
-1.98633e-010
-3.65721e-006
-7.25283e-006
-1.07277e-005
-1.40266e-005
-1.70996e-005
-1.9904e-005
-2.24049e-005
-2.45757e-005
-2.63982e-005
-2.78624e-005
-2.89657e-005
-2.97125e-005
-3.01128e-005
-3.01812e-005
-2.99363e-005
-2.93989e-005
-2.8592e-005
-2.7539e-005
-2.6264e-005
-2.47903e-005
-2.31406e-005
-2.13365e-005
-1.93983e-005
-1.73448e-005
-1.51933e-005
-1.29597e-005
-1.06585e-005
-8.30299e-006
-5.90505e-006
-5.90505e-006
5.9783e-006
5.9783e-006
8.40372e-006
1.079e-005
1.3124e-005
1.53921e-005
1.75799e-005
1.96713e-005
2.1649e-005
2.34939e-005
2.51855e-005
2.67018e-005
2.80195e-005
2.91144e-005
2.99615e-005
3.05362e-005
3.08142e-005
3.07731e-005
3.03927e-005
2.96569e-005
2.85538e-005
2.70779e-005
2.52303e-005
2.30204e-005
2.0466e-005
1.7594e-005
1.44402e-005
1.1049e-005
7.47235e-006
3.76846e-006
-1.96461e-010
-3.76885e-006
-7.47274e-006
-1.10494e-005
-1.44406e-005
-1.75944e-005
-2.04664e-005
-2.30208e-005
-2.52307e-005
-2.70782e-005
-2.85542e-005
-2.96572e-005
-3.03931e-005
-3.07734e-005
-3.08145e-005
-3.05365e-005
-2.99618e-005
-2.91147e-005
-2.80198e-005
-2.67021e-005
-2.51857e-005
-2.34941e-005
-2.16492e-005
-1.96715e-005
-1.75801e-005
-1.53923e-005
-1.31241e-005
-1.07901e-005
-8.40376e-006
-5.97832e-006
-5.97832e-006
6.05395e-006
6.05395e-006
8.50783e-006
1.09245e-005
1.32917e-005
1.55962e-005
1.78238e-005
1.99587e-005
2.19835e-005
2.38793e-005
2.56252e-005
2.71988e-005
2.85758e-005
2.97311e-005
3.06384e-005
3.1271e-005
3.16029e-005
3.1609e-005
3.12669e-005
3.05573e-005
2.94661e-005
2.79849e-005
2.6113e-005
2.38579e-005
2.12367e-005
1.82766e-005
1.50144e-005
1.1497e-005
7.77962e-006
3.92474e-006
-1.97121e-010
-3.92514e-006
-7.78001e-006
-1.14974e-005
-1.50148e-005
-1.82769e-005
-2.12371e-005
-2.38582e-005
-2.61133e-005
-2.79853e-005
-2.94665e-005
-3.05577e-005
-3.12672e-005
-3.16094e-005
-3.16032e-005
-3.12713e-005
-3.06387e-005
-2.97314e-005
-2.85761e-005
-2.7199e-005
-2.56255e-005
-2.38795e-005
-2.19837e-005
-1.99588e-005
-1.78239e-005
-1.55963e-005
-1.32918e-005
-1.09246e-005
-8.50787e-006
-6.05398e-006
-6.05398e-006
6.15513e-006
6.15513e-006
8.64909e-006
1.11085e-005
1.3522e-005
1.58771e-005
1.81603e-005
2.03559e-005
2.24471e-005
2.44145e-005
2.62372e-005
2.7892e-005
2.93538e-005
3.05958e-005
3.15897e-005
3.23065e-005
3.27171e-005
3.27931e-005
3.25083e-005
3.18394e-005
3.07682e-005
2.92826e-005
2.73785e-005
2.50612e-005
2.23464e-005
1.9261e-005
1.58438e-005
1.21449e-005
8.22437e-006
4.15108e-006
-1.98005e-010
-4.15147e-006
-8.22477e-006
-1.21453e-005
-1.58442e-005
-1.92614e-005
-2.23467e-005
-2.50616e-005
-2.73789e-005
-2.9283e-005
-3.07685e-005
-3.18397e-005
-3.25086e-005
-3.27935e-005
-3.27174e-005
-3.23068e-005
-3.159e-005
-3.0596e-005
-2.93541e-005
-2.78923e-005
-2.62375e-005
-2.44147e-005
-2.24472e-005
-2.03561e-005
-1.81604e-005
-1.58773e-005
-1.35221e-005
-1.11085e-005
-8.64914e-006
-6.15516e-006
-6.15516e-006
6.28064e-006
6.28064e-006
8.82499e-006
1.13384e-005
1.38106e-005
1.62302e-005
1.85843e-005
2.08579e-005
2.30344e-005
2.50946e-005
2.70173e-005
2.87785e-005
3.03518e-005
3.17086e-005
3.28182e-005
3.36484e-005
3.41661e-005
3.43384e-005
3.41339e-005
3.3524e-005
3.24848e-005
3.09989e-005
2.90576e-005
2.66623e-005
2.38267e-005
2.05774e-005
1.69552e-005
1.30144e-005
8.82198e-006
4.45542e-006
-1.99061e-010
-4.45582e-006
-8.82238e-006
-1.30148e-005
-1.69556e-005
-2.05778e-005
-2.3827e-005
-2.66627e-005
-2.9058e-005
-3.09993e-005
-3.24851e-005
-3.35243e-005
-3.41342e-005
-3.43388e-005
-3.41664e-005
-3.36487e-005
-3.28185e-005
-3.17089e-005
-3.03521e-005
-2.87787e-005
-2.70175e-005
-2.50948e-005
-2.30345e-005
-2.08581e-005
-1.85844e-005
-1.62304e-005
-1.38107e-005
-1.13385e-005
-8.82504e-006
-6.28067e-006
-6.28067e-006
6.42804e-006
6.42804e-006
9.03189e-006
1.16095e-005
1.4152e-005
1.6649e-005
1.90887e-005
2.14571e-005
2.3738e-005
2.59125e-005
2.7959e-005
2.98529e-005
3.15665e-005
3.30689e-005
3.43265e-005
3.53031e-005
3.59607e-005
3.62608e-005
3.61651e-005
3.56381e-005
3.46483e-005
3.3171e-005
3.11908e-005
2.8704e-005
2.57207e-005
2.22669e-005
1.83852e-005
1.41356e-005
9.5938e-006
4.84886e-006
-2.00236e-010
-4.84926e-006
-9.5942e-006
-1.4136e-005
-1.83856e-005
-2.22672e-005
-2.57211e-005
-2.87044e-005
-3.11912e-005
-3.31714e-005
-3.46486e-005
-3.56385e-005
-3.61655e-005
-3.62611e-005
-3.59611e-005
-3.53034e-005
-3.43268e-005
-3.30692e-005
-3.15668e-005
-2.98532e-005
-2.79593e-005
-2.59127e-005
-2.37382e-005
-2.14573e-005
-1.90889e-005
-1.66492e-005
-1.41521e-005
-1.16096e-005
-9.03195e-006
-6.42807e-006
-6.42807e-006
6.59396e-006
6.59396e-006
9.26508e-006
1.19158e-005
1.45388e-005
1.71253e-005
1.96647e-005
2.21441e-005
2.45481e-005
2.68585e-005
2.90535e-005
3.11079e-005
3.29926e-005
3.46743e-005
3.6116e-005
3.72769e-005
3.81132e-005
3.8579e-005
3.86281e-005
3.82153e-005
3.72994e-005
3.58462e-005
3.3831e-005
3.12424e-005
2.80855e-005
2.43842e-005
2.01834e-005
1.55493e-005
1.05688e-005
5.34646e-006
-2.01453e-010
-5.34686e-006
-1.05692e-005
-1.55497e-005
-2.01838e-005
-2.43846e-005
-2.80859e-005
-3.12428e-005
-3.38314e-005
-3.58466e-005
-3.72998e-005
-3.82156e-005
-3.86284e-005
-3.85794e-005
-3.81135e-005
-3.72772e-005
-3.61163e-005
-3.46746e-005
-3.29929e-005
-3.11082e-005
-2.90538e-005
-2.68587e-005
-2.45483e-005
-2.21443e-005
-1.96648e-005
-1.71254e-005
-1.45389e-005
-1.19159e-005
-9.26514e-006
-6.594e-006
-6.594e-006
6.77419e-006
6.77419e-006
9.51872e-006
1.22499e-005
1.49622e-005
1.76488e-005
2.03007e-005
2.29065e-005
2.54521e-005
2.792e-005
3.02889e-005
3.25329e-005
3.46218e-005
3.65199e-005
3.81865e-005
3.95755e-005
4.06363e-005
4.13144e-005
4.15531e-005
4.12957e-005
4.04883e-005
3.90836e-005
3.70447e-005
3.43494e-005
3.0995e-005
2.70014e-005
2.24149e-005
1.73094e-005
1.17857e-005
5.96845e-006
-2.02609e-010
-5.96885e-006
-1.17861e-005
-1.73098e-005
-2.24153e-005
-2.70018e-005
-3.09954e-005
-3.43498e-005
-3.7045e-005
-3.9084e-005
-4.04887e-005
-4.12961e-005
-4.15535e-005
-4.13148e-005
-4.06367e-005
-3.95759e-005
-3.81868e-005
-3.65202e-005
-3.46221e-005
-3.25332e-005
-3.02891e-005
-2.79203e-005
-2.54523e-005
-2.29067e-005
-2.03008e-005
-1.76489e-005
-1.49623e-005
-1.22499e-005
-9.51878e-006
-6.77423e-006
-6.77423e-006
6.96365e-006
6.96365e-006
9.78579e-006
1.26028e-005
1.54114e-005
1.82071e-005
2.09828e-005
2.37293e-005
2.6434e-005
2.90808e-005
3.16492e-005
3.41133e-005
3.6442e-005
3.85973e-005
4.05348e-005
4.22027e-005
4.35425e-005
4.44895e-005
4.49746e-005
4.49264e-005
4.42748e-005
4.29555e-005
4.09149e-005
3.81159e-005
3.45437e-005
3.02117e-005
2.51657e-005
1.94878e-005
1.32962e-005
6.74189e-006
-2.03564e-010
-6.7423e-006
-1.32966e-005
-1.94882e-005
-2.51661e-005
-3.02121e-005
-3.45441e-005
-3.81163e-005
-4.09153e-005
-4.29559e-005
-4.42753e-005
-4.49268e-005
-4.4975e-005
-4.44899e-005
-4.35428e-005
-4.22031e-005
-4.05352e-005
-3.85977e-005
-3.64423e-005
-3.41136e-005
-3.16494e-005
-2.90811e-005
-2.64342e-005
-2.37295e-005
-2.0983e-005
-1.82072e-005
-1.54116e-005
-1.26029e-005
-9.78585e-006
-6.96369e-006
-6.96369e-006
7.15639e-006
7.15639e-006
1.00581e-005
1.2964e-005
1.58738e-005
1.87853e-005
2.16943e-005
2.45939e-005
2.7474e-005
3.03203e-005
3.31138e-005
3.58295e-005
3.84357e-005
4.08929e-005
4.3153e-005
4.51582e-005
4.68416e-005
4.81268e-005
4.89297e-005
4.91608e-005
4.87295e-005
4.75491e-005
4.55438e-005
4.26557e-005
3.88527e-005
3.41361e-005
2.85486e-005
2.21799e-005
1.51696e-005
7.70315e-006
-2.04115e-010
-7.70356e-006
-1.517e-005
-2.21803e-005
-2.8549e-005
-3.41365e-005
-3.8853e-005
-4.26561e-005
-4.55442e-005
-4.75495e-005
-4.87299e-005
-4.91612e-005
-4.89301e-005
-4.81272e-005
-4.6842e-005
-4.51586e-005
-4.31533e-005
-4.08933e-005
-3.8436e-005
-3.58298e-005
-3.31141e-005
-3.03206e-005
-2.74742e-005
-2.45941e-005
-2.16945e-005
-1.87855e-005
-1.5874e-005
-1.29641e-005
-1.00581e-005
-7.15643e-006
-7.15643e-006
7.34556e-006
7.34556e-006
1.03261e-005
1.33216e-005
1.63346e-005
1.93662e-005
2.24154e-005
2.54783e-005
2.85479e-005
3.16128e-005
3.46564e-005
3.76554e-005
4.05787e-005
4.3386e-005
4.60262e-005
4.8436e-005
5.05393e-005
5.22468e-005
5.34568e-005
5.40579e-005
5.39334e-005
5.2968e-005
5.10559e-005
4.81108e-005
4.40753e-005
3.89318e-005
3.2713e-005
2.55138e-005
1.74994e-005
8.90136e-006
-2.0395e-010
-8.90176e-006
-1.74998e-005
-2.55142e-005
-3.27133e-005
-3.89322e-005
-4.40757e-005
-4.81112e-005
-5.10564e-005
-5.29684e-005
-5.39339e-005
-5.40583e-005
-5.34572e-005
-5.22473e-005
-5.05398e-005
-4.84364e-005
-4.60266e-005
-4.33864e-005
-4.0579e-005
-3.76557e-005
-3.46567e-005
-3.16131e-005
-2.85481e-005
-2.54785e-005
-2.24155e-005
-1.93664e-005
-1.63347e-005
-1.33217e-005
-1.03261e-005
-7.34561e-006
-7.34561e-006
7.52349e-006
7.52349e-006
1.05791e-005
1.36616e-005
1.67769e-005
1.99297e-005
2.31227e-005
2.63561e-005
2.96266e-005
3.29269e-005
3.62438e-005
3.95571e-005
4.2838e-005
4.60465e-005
4.913e-005
5.20206e-005
5.46332e-005
5.68647e-005
5.85932e-005
5.9681e-005
5.99787e-005
5.93339e-005
5.76015e-005
5.46566e-005
5.04065e-005
4.4803e-005
3.78578e-005
2.96633e-005
2.04128e-005
1.04032e-005
-2.02536e-010
-1.04036e-005
-2.04132e-005
-2.96637e-005
-3.78582e-005
-4.48034e-005
-5.04069e-005
-5.4657e-005
-5.76019e-005
-5.93344e-005
-5.99792e-005
-5.96815e-005
-5.85937e-005
-5.68651e-005
-5.46337e-005
-5.2021e-005
-4.91304e-005
-4.60469e-005
-4.28383e-005
-3.95574e-005
-3.62441e-005
-3.29272e-005
-2.96269e-005
-2.63563e-005
-2.31229e-005
-1.99299e-005
-1.6777e-005
-1.36617e-005
-1.05792e-005
-7.52354e-006
-7.52354e-006
7.68165e-006
7.68165e-006
1.08054e-005
1.39688e-005
1.71818e-005
2.04531e-005
2.37898e-005
2.71968e-005
3.06759e-005
3.42246e-005
3.7835e-005
4.14917e-005
4.51698e-005
4.88324e-005
5.24271e-005
5.58834e-005
5.91088e-005
6.19858e-005
6.43708e-005
6.60945e-005
6.69671e-005
6.67878e-005
6.536e-005
6.25079e-005
5.80913e-005
5.20164e-005
4.42523e-005
3.4869e-005
2.40855e-005
1.22989e-005
-1.98856e-010
-1.22993e-005
-2.40858e-005
-3.48694e-005
-4.42527e-005
-5.20167e-005
-5.80917e-005
-6.25083e-005
-6.53605e-005
-6.67883e-005
-6.69676e-005
-6.6095e-005
-6.43713e-005
-6.19863e-005
-5.91093e-005
-5.58839e-005
-5.24276e-005
-4.88328e-005
-4.51702e-005
-4.1492e-005
-3.78352e-005
-3.42248e-005
-3.06761e-005
-2.7197e-005
-2.379e-005
-2.04533e-005
-1.71819e-005
-1.39689e-005
-1.08055e-005
-7.68171e-006
-7.68171e-006
7.81083e-006
7.81083e-006
1.0992e-005
1.42266e-005
1.75285e-005
2.09112e-005
2.43868e-005
2.79656e-005
3.16556e-005
3.54608e-005
3.93801e-005
4.3405e-005
4.75175e-005
5.16863e-005
5.5863e-005
5.99777e-005
6.3933e-005
6.75994e-005
7.081e-005
7.33597e-005
7.50077e-005
7.54907e-005
7.45432e-005
7.19243e-005
6.7435e-005
6.09192e-005
5.22663e-005
4.14754e-005
2.87614e-005
1.47071e-005
-1.90858e-010
-1.47075e-005
-2.87618e-005
-4.14757e-005
-5.22667e-005
-6.09195e-005
-6.74354e-005
-7.19247e-005
-7.45437e-005
-7.54913e-005
-7.50083e-005
-7.33602e-005
-7.08106e-005
-6.75999e-005
-6.39336e-005
-5.99782e-005
-5.58635e-005
-5.16867e-005
-4.75179e-005
-4.34053e-005
-3.93803e-005
-3.5461e-005
-3.16558e-005
-2.79658e-005
-2.43869e-005
-2.09113e-005
-1.75286e-005
-1.42267e-005
-1.09921e-005
-7.81089e-006
-7.81089e-006
7.90126e-006
7.90126e-006
1.11254e-005
1.4417e-005
1.77946e-005
2.12765e-005
2.48806e-005
2.86235e-005
3.25203e-005
3.65831e-005
4.08197e-005
4.52311e-005
4.98092e-005
5.45326e-005
5.93614e-005
6.42316e-005
6.90467e-005
7.3669e-005
7.79109e-005
8.15269e-005
8.42141e-005
8.56246e-005
8.53986e-005
8.32114e-005
7.88057e-005
7.19595e-005
6.2419e-005
5.0005e-005
3.47779e-005
1.77685e-005
-1.74709e-010
-1.77688e-005
-3.47783e-005
-5.00052e-005
-6.24192e-005
-7.19598e-005
-7.88061e-005
-8.32119e-005
-8.53991e-005
-8.56252e-005
-8.42147e-005
-8.15275e-005
-7.79115e-005
-7.36697e-005
-6.90473e-005
-6.42322e-005
-5.93619e-005
-5.4533e-005
-4.98096e-005
-4.52315e-005
-4.082e-005
-3.65834e-005
-3.25205e-005
-2.86237e-005
-2.48807e-005
-2.12767e-005
-1.77947e-005
-1.44171e-005
-1.11255e-005
-7.90132e-006
-7.90132e-006
7.94286e-006
7.94286e-006
1.11913e-005
1.45214e-005
1.79564e-005
2.15198e-005
2.52357e-005
2.91277e-005
3.32192e-005
3.7532e-005
4.20846e-005
4.68908e-005
5.19561e-005
5.72737e-005
6.28189e-005
6.85411e-005
7.43535e-005
8.01198e-005
8.5638e-005
9.06235e-005
9.46976e-005
9.73957e-005
9.82157e-005
9.67176e-005
9.26176e-005
8.56947e-005
7.54456e-005
6.13481e-005
4.25773e-005
2.15893e-005
-1.46283e-010
-2.15896e-005
-4.25775e-005
-6.13482e-005
-7.54458e-005
-8.5695e-005
-9.26181e-005
-9.67181e-005
-9.82163e-005
-9.73964e-005
-9.46983e-005
-9.06242e-005
-8.56387e-005
-8.01205e-005
-7.43542e-005
-6.85417e-005
-6.28194e-005
-5.72742e-005
-5.19565e-005
-4.68911e-005
-4.20849e-005
-3.75322e-005
-3.32194e-005
-2.91279e-005
-2.52358e-005
-2.152e-005
-1.79565e-005
-1.45215e-005
-1.11914e-005
-7.94293e-006
-7.94293e-006
7.92552e-006
7.92552e-006
1.11755e-005
1.4521e-005
1.79898e-005
2.16109e-005
2.54146e-005
2.94326e-005
3.36971e-005
3.82411e-005
4.30963e-005
4.82917e-005
5.38509e-005
5.97876e-005
6.60998e-005
7.27608e-005
7.97069e-005
8.68192e-005
9.38984e-005
0.000100632
0.000106558
0.000111046
0.000113352
0.000112826
0.000109253
0.000102757
9.23212e-005
7.7365e-005
5.25942e-005
2.60118e-005
-1.207e-010
-2.6012e-005
-5.25944e-005
-7.7365e-005
-9.23213e-005
-0.000102757
-0.000109254
-0.000112827
-0.000113352
-0.000111046
-0.000106559
-0.000100633
-9.38993e-005
-8.682e-005
-7.97077e-005
-7.27615e-005
-6.61004e-005
-5.97881e-005
-5.38513e-005
-4.8292e-005
-4.30966e-005
-3.82413e-005
-3.36973e-005
-2.94327e-005
-2.54147e-005
-2.1611e-005
-1.79899e-005
-1.45211e-005
-1.11756e-005
-7.92559e-006
-7.92559e-006
7.83949e-006
7.83949e-006
1.10644e-005
1.43974e-005
1.7871e-005
2.15194e-005
2.53795e-005
2.94909e-005
3.38958e-005
3.86393e-005
4.3768e-005
4.93292e-005
5.53685e-005
6.19264e-005
6.90322e-005
7.6696e-005
8.48947e-005
9.35522e-005
0.000102505
0.000111449
0.000119857
0.000126878
0.000131319
0.000131984
0.000128813
0.000123758
0.000113718
0.000103191
6.44185e-005
2.98609e-005
-2.50642e-010
-2.98609e-005
-6.44181e-005
-0.000103191
-0.000113719
-0.000123758
-0.000128814
-0.000131985
-0.00013132
-0.000126879
-0.000119858
-0.00011145
-0.000102506
-9.35532e-005
-8.48956e-005
-7.66967e-005
-6.90328e-005
-6.19269e-005
-5.53689e-005
-4.93294e-005
-4.37682e-005
-3.86395e-005
-3.3896e-005
-2.9491e-005
-2.53796e-005
-2.15195e-005
-1.78711e-005
-1.43975e-005
-1.10644e-005
-7.83956e-006
-7.83956e-006
7.67578e-006
7.67578e-006
1.0845e-005
1.41334e-005
1.75774e-005
2.12163e-005
2.50932e-005
2.92557e-005
3.37563e-005
3.86525e-005
4.40073e-005
4.98887e-005
5.63679e-005
6.35176e-005
7.14073e-005
8.00966e-005
8.96244e-005
9.99905e-005
0.000111121
0.000122804
0.000134542
0.000145292
0.000153064
0.000154979
0.000150257
0.000149746
0.000135587
0.000155862
7.15647e-005
2.87823e-005
-1.11479e-009
-2.87845e-005
-7.15672e-005
-0.000155864
-0.000135588
-0.000149745
-0.000150259
-0.00015498
-0.000153065
-0.000145293
-0.000134544
-0.000122805
-0.000111123
-9.99915e-005
-8.96253e-005
-8.00973e-005
-7.14079e-005
-6.35181e-005
-5.63683e-005
-4.9889e-005
-4.40075e-005
-3.86526e-005
-3.37563e-005
-2.92558e-005
-2.50933e-005
-2.12164e-005
-1.75775e-005
-1.41335e-005
-1.0845e-005
-7.67584e-006
-7.67584e-006
7.42666e-006
7.42666e-006
1.05064e-005
1.3714e-005
1.7089e-005
2.06753e-005
2.45215e-005
2.86827e-005
3.32211e-005
3.82071e-005
4.37205e-005
4.98506e-005
5.66973e-005
6.43693e-005
7.2983e-005
8.26591e-005
9.35165e-005
0.000105665
0.000119187
0.000134102
0.000150219
0.000166684
0.000180666
0.000184612
0.000167509
0.000189706
0.000128303
0.000145576
6.22729e-005
2.50672e-005
-2.99461e-009
-2.50755e-005
-6.22873e-005
-0.000145597
-0.000128326
-0.000189722
-0.000167516
-0.000184614
-0.000180667
-0.000166685
-0.00015022
-0.000134103
-0.000119189
-0.000105666
-9.35175e-005
-8.26599e-005
-7.29836e-005
-6.43697e-005
-5.66976e-005
-4.98509e-005
-4.37206e-005
-3.82072e-005
-3.32212e-005
-2.86828e-005
-2.45215e-005
-2.06753e-005
-1.7089e-005
-1.3714e-005
-1.05064e-005
-7.42673e-006
-7.42673e-006
7.08619e-006
7.08619e-006
1.004e-005
1.31271e-005
1.63895e-005
1.98743e-005
2.36349e-005
2.77327e-005
3.22385e-005
3.72347e-005
4.28169e-005
4.90964e-005
5.62015e-005
6.42795e-005
7.3497e-005
8.40408e-005
9.61185e-005
0.000109965
0.000125862
0.000144199
0.000165547
0.000190562
0.000218315
0.000235262
0.000151485
0.000162259
7.10526e-005
-8.61922e-006
2.59854e-005
1.87233e-005
-2.90043e-009
-1.87312e-005
-2.59983e-005
8.59903e-006
-7.10845e-005
-0.000162305
-0.000151529
-0.000235288
-0.000218316
-0.000190563
-0.000165548
-0.000144201
-0.000125864
-0.000109966
-9.61196e-005
-8.40416e-005
-7.34976e-005
-6.42799e-005
-5.62018e-005
-4.90965e-005
-4.2817e-005
-3.72347e-005
-3.22385e-005
-2.77327e-005
-2.36349e-005
-1.98743e-005
-1.63895e-005
-1.31271e-005
-1.004e-005
-7.08625e-006
-7.08625e-006
6.65066e-006
6.65066e-006
9.44031e-006
1.23649e-005
1.54676e-005
1.87975e-005
2.24112e-005
2.63747e-005
3.07657e-005
3.56763e-005
4.12164e-005
4.75168e-005
5.47333e-005
6.30505e-005
7.26852e-005
8.38893e-005
9.69527e-005
0.000112213
0.0001301
0.000151286
0.000177208
0.000211722
0.000267881
0.000212899
9.98476e-005
1.57131e-005
1.51855e-005
-7.40699e-005
-4.60582e-006
7.11777e-006
4.37017e-010
-7.11651e-006
4.60877e-006
7.40712e-005
-1.51913e-005
-1.57398e-005
-9.98985e-005
-0.000212935
-0.000267892
-0.000211722
-0.00017721
-0.000151288
-0.000130102
-0.000112215
-9.69539e-005
-8.38901e-005
-7.26857e-005
-6.30508e-005
-5.47334e-005
-4.75168e-005
-4.12164e-005
-3.56762e-005
-3.07656e-005
-2.63746e-005
-2.24112e-005
-1.87975e-005
-1.54675e-005
-1.23649e-005
-9.44033e-006
-6.65071e-006
-6.65071e-006
6.11911e-006
6.11911e-006
8.70575e-006
1.14245e-005
1.43185e-005
1.74371e-005
2.08379e-005
2.45893e-005
2.87733e-005
3.34887e-005
3.88557e-005
4.50213e-005
5.21646e-005
6.05043e-005
7.03044e-005
8.18789e-005
9.55902e-005
0.000111838
0.000131038
0.000153637
0.000180289
0.000212642
0.000261154
7.67084e-005
7.02027e-005
-3.52699e-005
-1.41946e-007
-2.08147e-005
-7.36151e-006
-3.45609e-007
4.2819e-009
3.5484e-007
7.37231e-006
2.08251e-005
1.54019e-007
3.52809e-005
-7.02084e-005
-7.67554e-005
-0.000261241