# vtk DataFile Version 3.0
vtk output
ASCII
DATASET STRUCTURED_GRID
DIMENSIONS 61 71 1
POINTS 4331 double
0 0 0
0.05 0 0
0.1 0 0
0.15 0 0
0.2 0 0
0.25 0 0
0.3 0 0
0.35 0 0
0.4 0 0
0.45 0 0
0.5 0 0
0.55 0 0
0.6 0 0
0.65 0 0
0.7 0 0
0.75 0 0
0.8 0 0
0.85 0 0
0.9 0 0
0.95 0 0
1 0 0
1.05 0 0
1.1 0 0
1.15 0 0
1.2 0 0
1.25 0 0
1.3 0 0
1.35 0 0
1.4 0 0
1.45 0 0
1.5 0 0
1.55 0 0
1.6 0 0
1.65 0 0
1.7 0 0
1.75 0 0
1.8 0 0
1.85 0 0
1.9 0 0
1.95 0 0
2 0 0
2.05 0 0
2.1 0 0
2.15 0 0
2.2 0 0
2.25 0 0
2.3 0 0
2.35 0 0
2.4 0 0
2.45 0 0
2.5 0 0
2.55 0 0
2.6 0 0
2.65 0 0
2.7 0 0
2.75 0 0
2.8 0 0
2.85 0 0
2.9 0 0
2.95 0 0
3 0 0
0 0.05 0
0.05 0.05 0
0.1 0.05 0
0.15 0.05 0
0.2 0.05 0
0.25 0.05 0
0.3 0.05 0
0.35 0.05 0
0.4 0.05 0
0.45 0.05 0
0.5 0.05 0
0.55 0.05 0
0.6 0.05 0
0.65 0.05 0
0.7 0.05 0
0.75 0.05 0
0.8 0.05 0
0.85 0.05 0
0.9 0.05 0
0.95 0.05 0
1 0.05 0
1.05 0.05 0
1.1 0.05 0
1.15 0.05 0
1.2 0.05 0
1.25 0.05 0
1.3 0.05 0
1.35 0.05 0
1.4 0.05 0
1.45 0.05 0
1.5 0.05 0
1.55 0.05 0
1.6 0.05 0
1.65 0.05 0
1.7 0.05 0
1.75 0.05 0
1.8 0.05 0
1.85 0.05 0
1.9 0.05 0
1.95 0.05 0
2 0.05 0
2.05 0.05 0
2.1 0.05 0
2.15 0.05 0
2.2 0.05 0
2.25 0.05 0
2.3 0.05 0
2.35 0.05 0
2.4 0.05 0
2.45 0.05 0
2.5 0.05 0
2.55 0.05 0
2.6 0.05 0
2.65 0.05 0
2.7 0.05 0
2.75 0.05 0
2.8 0.05 0
2.85 0.05 0
2.9 0.05 0
2.95 0.05 0
3 0.05 0
0 0.1 0
0.05 0.1 0
0.1 0.1 0
0.15 0.1 0
0.2 0.1 0
0.25 0.1 0
0.3 0.1 0
0.35 0.1 0
0.4 0.1 0
0.45 0.1 0
0.5 0.1 0
0.55 0.1 0
0.6 0.1 0
0.65 0.1 0
0.7 0.1 0
0.75 0.1 0
0.8 0.1 0
0.85 0.1 0
0.9 0.1 0
0.95 0.1 0
1 0.1 0
1.05 0.1 0
1.1 0.1 0
1.15 0.1 0
1.2 0.1 0
1.25 0.1 0
1.3 0.1 0
1.35 0.1 0
1.4 0.1 0
1.45 0.1 0
1.5 0.1 0
1.55 0.1 0
1.6 0.1 0
1.65 0.1 0
1.7 0.1 0
1.75 0.1 0
1.8 0.1 0
1.85 0.1 0
1.9 0.1 0
1.95 0.1 0
2 0.1 0
2.05 0.1 0
2.1 0.1 0
2.15 0.1 0
2.2 0.1 0
2.25 0.1 0
2.3 0.1 0
2.35 0.1 0
2.4 0.1 0
2.45 0.1 0
2.5 0.1 0
2.55 0.1 0
2.6 0.1 0
2.65 0.1 0
2.7 0.1 0
2.75 0.1 0
2.8 0.1 0
2.85 0.1 0
2.9 0.1 0
2.95 0.1 0
3 0.1 0
0 0.15 0
0.05 0.15 0
0.1 0.15 0
0.15 0.15 0
0.2 0.15 0
0.25 0.15 0
0.3 0.15 0
0.35 0.15 0
0.4 0.15 0
0.45 0.15 0
0.5 0.15 0
0.55 0.15 0
0.6 0.15 0
0.65 0.15 0
0.7 0.15 0
0.75 0.15 0
0.8 0.15 0
0.85 0.15 0
0.9 0.15 0
0.95 0.15 0
1 0.15 0
1.05 0.15 0
1.1 0.15 0
1.15 0.15 0
1.2 0.15 0
1.25 0.15 0
1.3 0.15 0
1.35 0.15 0
1.4 0.15 0
1.45 0.15 0
1.5 0.15 0
1.55 0.15 0
1.6 0.15 0
1.65 0.15 0
1.7 0.15 0
1.75 0.15 0
1.8 0.15 0
1.85 0.15 0
1.9 0.15 0
1.95 0.15 0
2 0.15 0
2.05 0.15 0
2.1 0.15 0
2.15 0.15 0
2.2 0.15 0
2.25 0.15 0
2.3 0.15 0
2.35 0.15 0
2.4 0.15 0
2.45 0.15 0
2.5 0.15 0
2.55 0.15 0
2.6 0.15 0
2.65 0.15 0
2.7 0.15 0
2.75 0.15 0
2.8 0.15 0
2.85 0.15 0
2.9 0.15 0
2.95 0.15 0
3 0.15 0
0 0.2 0
0.05 0.2 0
0.1 0.2 0
0.15 0.2 0
0.2 0.2 0
0.25 0.2 0
0.3 0.2 0
0.35 0.2 0
0.4 0.2 0
0.45 0.2 0
0.5 0.2 0
0.55 0.2 0
0.6 0.2 0
0.65 0.2 0
0.7 0.2 0
0.75 0.2 0
0.8 0.2 0
0.85 0.2 0
0.9 0.2 0
0.95 0.2 0
1 0.2 0
1.05 0.2 0
1.1 0.2 0
1.15 0.2 0
1.2 0.2 0
1.25 0.2 0
1.3 0.2 0
1.35 0.2 0
1.4 0.2 0
1.45 0.2 0
1.5 0.2 0
1.55 0.2 0
1.6 0.2 0
1.65 0.2 0
1.7 0.2 0
1.75 0.2 0
1.8 0.2 0
1.85 0.2 0
1.9 0.2 0
1.95 0.2 0
2 0.2 0
2.05 0.2 0
2.1 0.2 0
2.15 0.2 0
2.2 0.2 0
2.25 0.2 0
2.3 0.2 0
2.35 0.2 0
2.4 0.2 0
2.45 0.2 0
2.5 0.2 0
2.55 0.2 0
2.6 0.2 0
2.65 0.2 0
2.7 0.2 0
2.75 0.2 0
2.8 0.2 0
2.85 0.2 0
2.9 0.2 0
2.95 0.2 0
3 0.2 0
0 0.25 0
0.05 0.25 0
0.1 0.25 0
0.15 0.25 0
0.2 0.25 0
0.25 0.25 0
0.3 0.25 0
0.35 0.25 0
0.4 0.25 0
0.45 0.25 0
0.5 0.25 0
0.55 0.25 0
0.6 0.25 0
0.65 0.25 0
0.7 0.25 0
0.75 0.25 0
0.8 0.25 0
0.85 0.25 0
0.9 0.25 0
0.95 0.25 0
1 0.25 0
1.05 0.25 0
1.1 0.25 0
1.15 0.25 0
1.2 0.25 0
1.25 0.25 0
1.3 0.25 0
1.35 0.25 0
1.4 0.25 0
1.45 0.25 0
1.5 0.25 0
1.55 0.25 0
1.6 0.25 0
1.65 0.25 0
1.7 0.25 0
1.75 0.25 0
1.8 0.25 0
1.85 0.25 0
1.9 0.25 0
1.95 0.25 0
2 0.25 0
2.05 0.25 0
2.1 0.25 0
2.15 0.25 0
2.2 0.25 0
2.25 0.25 0
2.3 0.25 0
2.35 0.25 0
2.4 0.25 0
2.45 0.25 0
2.5 0.25 0
2.55 0.25 0
2.6 0.25 0
2.65 0.25 0
2.7 0.25 0
2.75 0.25 0
2.8 0.25 0
2.85 0.25 0
2.9 0.25 0
2.95 0.25 0
3 0.25 0
0 0.3 0
0.05 0.3 0
0.1 0.3 0
0.15 0.3 0
0.2 0.3 0
0.25 0.3 0
0.3 0.3 0
0.35 0.3 0
0.4 0.3 0
0.45 0.3 0
0.5 0.3 0
0.55 0.3 0
0.6 0.3 0
0.65 0.3 0
0.7 0.3 0
0.75 0.3 0
0.8 0.3 0
0.85 0.3 0
0.9 0.3 0
0.95 0.3 0
1 0.3 0
1.05 0.3 0
1.1 0.3 0
1.15 0.3 0
1.2 0.3 0
1.25 0.3 0
1.3 0.3 0
1.35 0.3 0
1.4 0.3 0
1.45 0.3 0
1.5 0.3 0
1.55 0.3 0
1.6 0.3 0
1.65 0.3 0
1.7 0.3 0
1.75 0.3 0
1.8 0.3 0
1.85 0.3 0
1.9 0.3 0
1.95 0.3 0
2 0.3 0
2.05 0.3 0
2.1 0.3 0
2.15 0.3 0
2.2 0.3 0
2.25 0.3 0
2.3 0.3 0
2.35 0.3 0
2.4 0.3 0
2.45 0.3 0
2.5 0.3 0
2.55 0.3 0
2.6 0.3 0
2.65 0.3 0
2.7 0.3 0
2.75 0.3 0
2.8 0.3 0
2.85 0.3 0
2.9 0.3 0
2.95 0.3 0
3 0.3 0
0 0.35 0
0.05 0.35 0
0.1 0.35 0
0.15 0.35 0
0.2 0.35 0
0.25 0.35 0
0.3 0.35 0
0.35 0.35 0
0.4 0.35 0
0.45 0.35 0
0.5 0.35 0
0.55 0.35 0
0.6 0.35 0
0.65 0.35 0
0.7 0.35 0
0.75 0.35 0
0.8 0.35 0
0.85 0.35 0
0.9 0.35 0
0.95 0.35 0
1 0.35 0
1.05 0.35 0
1.1 0.35 0
1.15 0.35 0
1.2 0.35 0
1.25 0.35 0
1.3 0.35 0
1.35 0.35 0
1.4 0.35 0
1.45 0.35 0
1.5 0.35 0
1.55 0.35 0
1.6 0.35 0
1.65 0.35 0
1.7 0.35 0
1.75 0.35 0
1.8 0.35 0
1.85 0.35 0
1.9 0.35 0
1.95 0.35 0
2 0.35 0
2.05 0.35 0
2.1 0.35 0
2.15 0.35 0
2.2 0.35 0
2.25 0.35 0
2.3 0.35 0
2.35 0.35 0
2.4 0.35 0
2.45 0.35 0
2.5 0.35 0
2.55 0.35 0
2.6 0.35 0
2.65 0.35 0
2.7 0.35 0
2.75 0.35 0
2.8 0.35 0
2.85 0.35 0
2.9 0.35 0
2.95 0.35 0
3 0.35 0
0 0.4 0
0.05 0.4 0
0.1 0.4 0
0.15 0.4 0
0.2 0.4 0
0.25 0.4 0
0.3 0.4 0
0.35 0.4 0
0.4 0.4 0
0.45 0.4 0
0.5 0.4 0
0.55 0.4 0
0.6 0.4 0
0.65 0.4 0
0.7 0.4 0
0.75 0.4 0
0.8 0.4 0
0.85 0.4 0
0.9 0.4 0
0.95 0.4 0
1 0.4 0
1.05 0.4 0
1.1 0.4 0
1.15 0.4 0
1.2 0.4 0
1.25 0.4 0
1.3 0.4 0
1.35 0.4 0
1.4 0.4 0
1.45 0.4 0
1.5 0.4 0
1.55 0.4 0
1.6 0.4 0
1.65 0.4 0
1.7 0.4 0
1.75 0.4 0
1.8 0.4 0
1.85 0.4 0
1.9 0.4 0
1.95 0.4 0
2 0.4 0
2.05 0.4 0
2.1 0.4 0
2.15 0.4 0
2.2 0.4 0
2.25 0.4 0
2.3 0.4 0
2.35 0.4 0
2.4 0.4 0
2.45 0.4 0
2.5 0.4 0
2.55 0.4 0
2.6 0.4 0
2.65 0.4 0
2.7 0.4 0
2.75 0.4 0
2.8 0.4 0
2.85 0.4 0
2.9 0.4 0
2.95 0.4 0
3 0.4 0
0 0.45 0
0.05 0.45 0
0.1 0.45 0
0.15 0.45 0
0.2 0.45 0
0.25 0.45 0
0.3 0.45 0
0.35 0.45 0
0.4 0.45 0
0.45 0.45 0
0.5 0.45 0
0.55 0.45 0
0.6 0.45 0
0.65 0.45 0
0.7 0.45 0
0.75 0.45 0
0.8 0.45 0
0.85 0.45 0
0.9 0.45 0
0.95 0.45 0
1 0.45 0
1.05 0.45 0
1.1 0.45 0
1.15 0.45 0
1.2 0.45 0
1.25 0.45 0
1.3 0.45 0
1.35 0.45 0
1.4 0.45 0
1.45 0.45 0
1.5 0.45 0
1.55 0.45 0
1.6 0.45 0
1.65 0.45 0
1.7 0.45 0
1.75 0.45 0
1.8 0.45 0
1.85 0.45 0
1.9 0.45 0
1.95 0.45 0
2 0.45 0
2.05 0.45 0
2.1 0.45 0
2.15 0.45 0
2.2 0.45 0
2.25 0.45 0
2.3 0.45 0
2.35 0.45 0
2.4 0.45 0
2.45 0.45 0
2.5 0.45 0
2.55 0.45 0
2.6 0.45 0
2.65 0.45 0
2.7 0.45 0
2.75 0.45 0
2.8 0.45 0
2.85 0.45 0
2.9 0.45 0
2.95 0.45 0
3 0.45 0
0 0.5 0
0.05 0.5 0
0.1 0.5 0
0.15 0.5 0
0.2 0.5 0
0.25 0.5 0
0.3 0.5 0
0.35 0.5 0
0.4 0.5 0
0.45 0.5 0
0.5 0.5 0
0.55 0.5 0
0.6 0.5 0
0.65 0.5 0
0.7 0.5 0
0.75 0.5 0
0.8 0.5 0
0.85 0.5 0
0.9 0.5 0
0.95 0.5 0
1 0.5 0
1.05 0.5 0
1.1 0.5 0
1.15 0.5 0
1.2 0.5 0
1.25 0.5 0
1.3 0.5 0
1.35 0.5 0
1.4 0.5 0
1.45 0.5 0
1.5 0.5 0
1.55 0.5 0
1.6 0.5 0
1.65 0.5 0
1.7 0.5 0
1.75 0.5 0
1.8 0.5 0
1.85 0.5 0
1.9 0.5 0
1.95 0.5 0
2 0.5 0
2.05 0.5 0
2.1 0.5 0
2.15 0.5 0
2.2 0.5 0
2.25 0.5 0
2.3 0.5 0
2.35 0.5 0
2.4 0.5 0
2.45 0.5 0
2.5 0.5 0
2.55 0.5 0
2.6 0.5 0
2.65 0.5 0
2.7 0.5 0
2.75 0.5 0
2.8 0.5 0
2.85 0.5 0
2.9 0.5 0
2.95 0.5 0
3 0.5 0
0 0.55 0
0.05 0.55 0
0.1 0.55 0
0.15 0.55 0
0.2 0.55 0
0.25 0.55 0
0.3 0.55 0
0.35 0.55 0
0.4 0.55 0
0.45 0.55 0
0.5 0.55 0
0.55 0.55 0
0.6 0.55 0
0.65 0.55 0
0.7 0.55 0
0.75 0.55 0
0.8 0.55 0
0.85 0.55 0
0.9 0.55 0
0.95 0.55 0
1 0.55 0
1.05 0.55 0
1.1 0.55 0
1.15 0.55 0
1.2 0.55 0
1.25 0.55 0
1.3 0.55 0
1.35 0.55 0
1.4 0.55 0
1.45 0.55 0
1.5 0.55 0
1.55 0.55 0
1.6 0.55 0
1.65 0.55 0
1.7 0.55 0
1.75 0.55 0
1.8 0.55 0
1.85 0.55 0
1.9 0.55 0
1.95 0.55 0
2 0.55 0
2.05 0.55 0
2.1 0.55 0
2.15 0.55 0
2.2 0.55 0
2.25 0.55 0
2.3 0.55 0
2.35 0.55 0
2.4 0.55 0
2.45 0.55 0
2.5 0.55 0
2.55 0.55 0
2.6 0.55 0
2.65 0.55 0
2.7 0.55 0
2.75 0.55 0
2.8 0.55 0
2.85 0.55 0
2.9 0.55 0
2.95 0.55 0
3 0.55 0
0 0.6 0
0.05 0.6 0
0.1 0.6 0
0.15 0.6 0
0.2 0.6 0
0.25 0.6 0
0.3 0.6 0
0.35 0.6 0
0.4 0.6 0
0.45 0.6 0
0.5 0.6 0
0.55 0.6 0
0.6 0.6 0
0.65 0.6 0
0.7 0.6 0
0.75 0.6 0
0.8 0.6 0
0.85 0.6 0
0.9 0.6 0
0.95 0.6 0
1 0.6 0
1.05 0.6 0
1.1 0.6 0
1.15 0.6 0
1.2 0.6 0
1.25 0.6 0
1.3 0.6 0
1.35 0.6 0
1.4 0.6 0
1.45 0.6 0
1.5 0.6 0
1.55 0.6 0
1.6 0.6 0
1.65 0.6 0
1.7 0.6 0
1.75 0.6 0
1.8 0.6 0
1.85 0.6 0
1.9 0.6 0
1.95 0.6 0
2 0.6 0
2.05 0.6 0
2.1 0.6 0
2.15 0.6 0
2.2 0.6 0
2.25 0.6 0
2.3 0.6 0
2.35 0.6 0
2.4 0.6 0
2.45 0.6 0
2.5 0.6 0
2.55 0.6 0
2.6 0.6 0
2.65 0.6 0
2.7 0.6 0
2.75 0.6 0
2.8 0.6 0
2.85 0.6 0
2.9 0.6 0
2.95 0.6 0
3 0.6 0
0 0.65 0
0.05 0.65 0
0.1 0.65 0
0.15 0.65 0
0.2 0.65 0
0.25 0.65 0
0.3 0.65 0
0.35 0.65 0
0.4 0.65 0
0.45 0.65 0
0.5 0.65 0
0.55 0.65 0
0.6 0.65 0
0.65 0.65 0
0.7 0.65 0
0.75 0.65 0
0.8 0.65 0
0.85 0.65 0
0.9 0.65 0
0.95 0.65 0
1 0.65 0
1.05 0.65 0
1.1 0.65 0
1.15 0.65 0
1.2 0.65 0
1.25 0.65 0
1.3 0.65 0
1.35 0.65 0
1.4 0.65 0
1.45 0.65 0
1.5 0.65 0
1.55 0.65 0
1.6 0.65 0
1.65 0.65 0
1.7 0.65 0
1.75 0.65 0
1.8 0.65 0
1.85 0.65 0
1.9 0.65 0
1.95 0.65 0
2 0.65 0
2.05 0.65 0
2.1 0.65 0
2.15 0.65 0
2.2 0.65 0
2.25 0.65 0
2.3 0.65 0
2.35 0.65 0
2.4 0.65 0
2.45 0.65 0
2.5 0.65 0
[...]
POINT_DATA 4331
SCALARS u double
LOOKUP_TABLE default
0
0
0
0
0
0
0
0
0
0
0
0
0
0
0
0
0
0
0
0
0
0
0
0
0
0
0
0
0
0
0
0
0
0
0
0
0
0
0
0
0
0
0
0
0
0
0
0
0
0
0
0
0
0
0
0
0
0
0
0
0
3.31172e-005
3.31172e-005
3.89746e-005
4.46695e-005
5.01831e-005
5.54907e-005
6.05617e-005
6.536e-005
6.98448e-005
7.39701e-005
7.76854e-005
8.09361e-005
8.3664e-005
8.58083e-005
8.73069e-005
8.80978e-005
8.81212e-005
8.73213e-005
8.56495e-005
8.30665e-005
7.95456e-005
7.50749e-005
6.96606e-005
6.33288e-005
5.61269e-005
4.81248e-005
3.94145e-005
3.01085e-005
2.03381e-005
1.02492e-005
-1.56832e-009
-1.02524e-005
-2.03412e-005
-3.01116e-005
-3.94174e-005
-4.81277e-005
-5.61297e-005
-6.33315e-005
-6.96632e-005
-7.50774e-005
-7.9548e-005
-8.30688e-005
-8.56517e-005
-8.73234e-005
-8.81231e-005
-8.80997e-005
-8.73087e-005
-8.58099e-005
-8.36655e-005
-8.09375e-005
-7.76867e-005
-7.39712e-005
-6.98458e-005
-6.5361e-005
-6.05625e-005
-5.54915e-005
-5.01837e-005
-4.467e-005
-3.89751e-005
-3.31176e-005
-3.31176e-005
3.37652e-005
3.37652e-005
3.97223e-005
4.55409e-005
5.11899e-005
5.66394e-005
6.18566e-005
6.68044e-005
7.14404e-005
7.57177e-005
7.95842e-005
8.29832e-005
8.58543e-005
8.81338e-005
8.9756e-005
9.06552e-005
9.07672e-005
9.00316e-005
8.83949e-005
8.5813e-005
8.22545e-005
7.77038e-005
7.21638e-005
6.56587e-005
5.82358e-005
4.99664e-005
4.0946e-005
3.12927e-005
2.11451e-005
1.06581e-005
-1.59558e-009
-1.06613e-005
-2.11482e-005
-3.12958e-005
-4.0949e-005
-4.99693e-005
-5.82386e-005
-6.56614e-005
-7.21664e-005
-7.77063e-005
-8.2257e-005
-8.58153e-005
-8.83971e-005
-9.00337e-005
-9.07691e-005
-9.06571e-005
-8.97578e-005
-8.81354e-005
-8.58559e-005
-8.29847e-005
-7.95855e-005
-7.57189e-005
-7.14415e-005
-6.68053e-005
-6.18575e-005
-5.66401e-005
-5.11905e-005
-4.55414e-005
-3.97227e-005
-3.37655e-005
-3.37655e-005
3.41178e-005
3.41178e-005
4.01183e-005
4.59901e-005
5.17051e-005
5.72336e-005
6.25424e-005
6.75942e-005
7.23467e-005
7.6752e-005
8.07571e-005
8.4304e-005
8.73296e-005
8.97674e-005
9.15478e-005
9.26003e-005
9.28549e-005
9.2245e-005
9.071e-005
8.81986e-005
8.46721e-005
8.01081e-005
7.45038e-005
6.78794e-005
6.02799e-005
5.1777e-005
4.24694e-005
3.24813e-005
2.19604e-005
1.10728e-005
-1.61517e-009
-1.1076e-005
-2.19635e-005
-3.24845e-005
-4.24724e-005
-5.178e-005
-6.02827e-005
-6.78822e-005
-7.45065e-005
-8.01106e-005
-8.46745e-005
-8.82009e-005
-9.07122e-005
-9.22471e-005
-9.28569e-005
-9.26022e-005
-9.15496e-005
-8.97691e-005
-8.73312e-005
-8.43054e-005
-8.07584e-005
-7.67531e-005
-7.23477e-005
-6.75952e-005
-6.25432e-005
-5.72343e-005
-5.17057e-005
-4.59906e-005
-4.01187e-005
-3.41181e-005
-3.41181e-005
3.45685e-005
3.45685e-005
4.06388e-005
4.65909e-005
5.24007e-005
5.804e-005
6.34769e-005
6.86743e-005
7.35899e-005
7.81755e-005
8.23767e-005
8.61335e-005
8.93799e-005
9.2045e-005
9.4054e-005
9.53293e-005
9.57931e-005
9.53695e-005
9.39878e-005
9.15858e-005
8.81142e-005
8.35403e-005
7.78528e-005
7.10649e-005
6.32182e-005
5.43845e-005
4.46667e-005
3.4198e-005
2.31389e-005
1.16726e-005
-1.64231e-009
-1.16758e-005
-2.31421e-005
-3.42012e-005
-4.46698e-005
-5.43875e-005
-6.32211e-005
-7.10676e-005
-7.78554e-005
-8.35429e-005
-8.81166e-005
-9.15882e-005
-9.399e-005
-9.53717e-005
-9.57951e-005
-9.53312e-005
-9.40558e-005
-9.20467e-005
-8.93815e-005
-8.61349e-005
-8.2378e-005
-7.81766e-005
-7.3591e-005
-6.86752e-005
-6.34777e-005
-5.80407e-005
-5.24013e-005
-4.65914e-005
-4.06392e-005
-3.45688e-005
-3.45688e-005
3.5117e-005
3.5117e-005
4.12773e-005
4.73342e-005
5.32666e-005
5.90489e-005
6.46508e-005
7.00362e-005
7.51632e-005
7.99832e-005
8.44408e-005
8.84734e-005
9.20114e-005
9.49788e-005
9.72936e-005
9.88697e-005
9.96186e-005
9.94521e-005
9.82857e-005
9.60426e-005
9.26584e-005
8.80863e-005
8.2302e-005
7.53091e-005
6.71434e-005
5.7876e-005
4.7615e-005
3.65052e-005
2.47247e-005
1.24802e-005
-1.67746e-009
-1.24835e-005
-2.4728e-005
-3.65084e-005
-4.76182e-005
-5.7879e-005
-6.71463e-005
-7.53119e-005
-8.23046e-005
-8.80888e-005
-9.26609e-005
-9.6045e-005
-9.8288e-005
-9.94543e-005
-9.96207e-005
-9.88716e-005
-9.72954e-005
-9.49804e-005
-9.2013e-005
-8.84748e-005
-8.44421e-005
-7.99844e-005
-7.51642e-005
-7.00371e-005
-6.46516e-005
-5.90496e-005
-5.32672e-005
-4.73347e-005
-4.12777e-005
-3.51173e-005
-3.51173e-005
3.57524e-005
3.57524e-005
4.20193e-005
4.82019e-005
5.42826e-005
6.02384e-005
6.60411e-005
7.16564e-005
7.70434e-005
8.21534e-005
8.69298e-005
9.13078e-005
9.52136e-005
9.8565e-005
0.000101272
0.000103237
0.00010436
0.000104535
0.00010366
0.000101641
9.83906e-005
9.38443e-005
8.79598e-005
8.07263e-005
7.21705e-005
6.23612e-005
5.14123e-005
3.94829e-005
2.67746e-005
1.35252e-005
-1.72058e-009
-1.35286e-005
-2.6778e-005
-3.94861e-005
-5.14154e-005
-6.23643e-005
-7.21734e-005
-8.07291e-005
-8.79625e-005
-9.3847e-005
-9.83932e-005
-0.000101643
-0.000103663
-0.000104537
-0.000104362
-0.000103239
-0.000101274
-9.85667e-005
-9.52152e-005
-9.13092e-005
-8.69311e-005
-8.21545e-005
-7.70444e-005
-7.16573e-005
-6.60418e-005
-6.0239e-005
-5.42831e-005
-4.82024e-005
-4.20196e-005
-3.57527e-005
-3.57527e-005
3.64589e-005
3.64589e-005
4.28455e-005
4.91717e-005
5.54234e-005
6.15808e-005
6.76188e-005
7.35052e-005
7.92005e-005
8.4657e-005
8.98174e-005
9.46144e-005
9.89702e-005
0.000102796
0.000105992
0.000108448
0.000110048
0.000110667
0.000110181
0.000108468
0.000105419
0.000100941
9.49665e-005
8.74657e-005
7.84511e-005
6.79861e-005
5.61901e-005
4.32395e-005
2.93658e-005
1.48477e-005
-1.77134e-009
-1.48512e-005
-2.93693e-005
-4.32428e-005
-5.61933e-005
-6.79892e-005
-7.84541e-005
-8.74686e-005
-9.49692e-005
-0.000100943
-0.000105422
-0.000108471
-0.000110183
-0.000110669
-0.00011005
-0.00010845
-0.000105993
-0.000102797
-9.89717e-005
-9.46158e-005
-8.98186e-005
-8.46581e-005
-7.92015e-005
-7.3506e-005
-6.76195e-005
-6.15814e-005
-5.54239e-005
-4.91721e-005
-4.28458e-005
-3.64591e-005
-3.64591e-005
3.7216e-005
3.7216e-005
4.3732e-005
5.02162e-005
5.66583e-005
6.30428e-005
6.9348e-005
7.55449e-005
8.15966e-005
8.74567e-005
9.30683e-005
9.83623e-005
0.000103257
0.000107656
0.000111451
0.000114516
0.000116716
0.000117904
0.000117927
0.000116633
0.000113878
0.000109533
0.0001035
9.5719e-005
8.61821e-005
7.49423e-005
6.21224e-005
4.79192e-005
3.26016e-005
1.65017e-005
-1.82869e-009
-1.65053e-005
-3.26052e-005
-4.79226e-005
-6.21257e-005
-7.49454e-005
-8.61851e-005
-9.57219e-005
-0.000103503
-0.000109536
-0.00011388
-0.000116636
-0.000117929
-0.000117906
-0.000116718
-0.000114518
-0.000111453
-0.000107658
-0.000103258
-9.83637e-005
-9.30695e-005
-8.74578e-005
-8.15975e-005
-7.55457e-005
-6.93486e-005
-6.30434e-005
-5.66588e-005
-5.02165e-005
-4.37322e-005
-3.72161e-005
-3.72161e-005
3.79992e-005
3.79992e-005
4.46503e-005
5.13027e-005
5.7951e-005
6.45842e-005
7.11854e-005
7.77298e-005
8.41843e-005
9.05051e-005
9.66367e-005
0.00010251
0.000108039
0.000113122
0.000117639
0.000121449
0.000124396
0.000126305
0.00012699
0.00012626
0.000123925
0.000119813
0.000113781
0.000105729
9.56161e-005
8.34786e-005
6.94382e-005
5.37135e-005
3.66198e-005
1.85592e-005
-1.89015e-009
-1.85629e-005
-3.66235e-005
-5.3717e-005
-6.94415e-005
-8.34818e-005
-9.56192e-005
-0.000105732
-0.000113784
-0.000119816
-0.000123928
-0.000126262
-0.000126993
-0.000126308
-0.000124399
-0.000121452
-0.000117641
-0.000113124
-0.00010804
-0.000102511
-9.66379e-005
-9.05061e-005
-8.41852e-005
-7.77305e-005
-7.1186e-005
-6.45847e-005
-5.79514e-005
-5.1303e-005
-4.46505e-005
-3.79993e-005
-3.79993e-005
3.87801e-005
3.87801e-005
4.55672e-005
5.23934e-005
5.92586e-005
6.61578e-005
7.30794e-005
8.00047e-005
8.69056e-005
9.37428e-005
0.000100464
0.000107001
0.000113266
0.000119154
0.000124533
0.000129247
0.000133115
0.000135931
0.00013747
0.00013749
0.000135749
0.000132014
0.000126082
0.000117798
0.000107075
9.39178e-005
7.84385e-005
6.08769e-005
4.16051e-005
2.11173e-005
-1.95034e-009
-2.11211e-005
-4.16088e-005
-6.08805e-005
-7.84419e-005
-9.3921e-005
-0.000107079
-0.000117801
-0.000126085
-0.000132017
-0.000135752
-0.000137493
-0.000137472
-0.000135934
-0.000133117
-0.000129249
-0.000124535
-0.000119156
-0.000113268
-0.000107002
-0.000100465
-9.37437e-005
-8.69064e-005
-8.00054e-005
-7.308e-005
-6.61582e-005
-5.92589e-005
-5.23936e-005
-4.55674e-005
-3.87801e-005
-3.87801e-005
3.95262e-005
3.95262e-005
4.64452e-005
5.34451e-005
6.05324e-005
6.77087e-005
7.49699e-005
8.23041e-005
8.96905e-005
9.70965e-005
0.000104475
0.000111762
0.000118872
0.000125695
0.000132091
0.00013789
0.000142884
0.000146835
0.000149467
0.000150482
0.000149567
0.000146413
0.000140736
0.000132306
0.00012097
0.000106679
8.95214e-005
6.97507e-005
4.78066e-005
2.43069e-005
-1.99797e-009
-2.43109e-005
-4.78104e-005
-6.97543e-005
-8.95248e-005
-0.000106682
-0.000120973
-0.000132309
-0.000140739
-0.000146416
-0.00014957
-0.000150485
-0.00014947
-0.000146837
-0.000142887
-0.000137892
-0.000132093
-0.000125697
-0.000118874
-0.000111764
-0.000104476
-9.70974e-005
-8.96912e-005
-8.23047e-005
-7.49703e-005
-6.7709e-005
-6.05326e-005
-5.34452e-005
-4.64452e-005
-3.95262e-005
-3.95262e-005
4.02017e-005
4.02017e-005
4.72421e-005
5.44094e-005
6.17171e-005
6.91749e-005
7.67872e-005
8.45514e-005
9.24559e-005
0.000100478
0.000108578
0.000116701
0.000124766
0.000132662
0.000140247
0.000147336
0.000153699
0.000159056
0.000163081
0.000165404
0.000165624
0.000163333
0.000158144
0.000149721
0.000137818
0.000122307
0.000103218
8.07982e-005
5.5564e-005
2.83061e-005
-2.00952e-009
-2.831e-005
-5.55678e-005
-8.08018e-005
-0.000103221
-0.00012231
-0.000137822
-0.000149725
-0.000158147
-0.000163337
-0.000165627
-0.000165407
-0.000163084
-0.000159059
-0.000153701
-0.000147338
-0.000140249
-0.000132664
-0.000124767
-0.000116702
-0.000108579
-0.000100478
-9.24565e-005
-8.45518e-005
-7.67875e-005
-6.91751e-005
-6.17172e-005
-5.44094e-005
-4.72421e-005
-4.02017e-005
-4.02017e-005
4.07673e-005
4.07673e-005
4.79123e-005
5.52331e-005
6.27517e-005
7.04867e-005
7.84527e-005
8.66584e-005
9.51041e-005
0.00010378
0.000112659
0.000121698
0.000130827
0.000139942
0.0001489
0.000157509
0.000165518
0.00017261
0.000178398
0.000182429
0.000184192
0.000183152
0.000178784
0.000170617
0.000158276
0.000141513
0.000120245
9.46608e-005
6.53455e-005
3.33557e-005
-1.93562e-009
-3.33595e-005
-6.53493e-005
-9.46644e-005
-0.000120248
-0.000141516
-0.00015828
-0.00017062
-0.000178787
-0.000183156
-0.000184196
-0.000182432
-0.000178402
-0.000172613
-0.000165521
-0.000157511
-0.000148902
-0.000139943
-0.000130828
-0.0001217
-0.00011266
-0.00010378
-9.51046e-005
-8.66587e-005
-7.84529e-005
-7.04868e-005
-6.27517e-005
-5.5233e-005
-4.79122e-005
-4.07672e-005
-4.07672e-005
4.11811e-005
4.11811e-005
4.84065e-005
5.58592e-005
6.35698e-005
7.15675e-005
7.98786e-005
8.85252e-005
9.75228e-005
0.000106877
0.000116581
0.000126607
0.000136901
0.000147378
0.000157902
0.000168282
0.000178254
0.000187467
0.000195473
0.00020172
0.000205564
0.0002063
0.000203222
0.000195685
0.000183158
0.000165223
0.000141588
0.000112256
7.78023e-005
3.97735e-005
-1.67244e-009
-3.9777e-005
-7.78059e-005
-0.000112259
-0.000141592
-0.000165227
-0.000183162
-0.000195689
-0.000203226
-0.000206305
-0.000205568
-0.000201724
-0.000195477
-0.00018747
-0.000178257
-0.000168284
-0.000157904
-0.000147379
-0.000136903
-0.000126607
-0.000116581
-0.000106878
-9.7523e-005
-8.85253e-005
-7.98786e-005
-7.15674e-005
-6.35697e-005
-5.5859e-005
-4.84063e-005
-4.11809e-005
-4.11809e-005
4.13994e-005
4.13994e-005
4.86735e-005
5.62272e-005
6.41009e-005
7.2335e-005
8.09691e-005
9.00411e-005
9.95845e-005
0.000109626
0.00012018
0.000131245
0.000142795
0.000154766
0.000167047
0.000179462
0.000191748
0.000203532
0.000214307
0.000223414
0.000230042
0.000233263
0.000232119
0.000225744
0.000213448
0.000194634
0.000168631
0.000134972
9.38359e-005
4.79386e-005
-1.0085e-009
-4.7941e-005
-9.38391e-005
-0.000134975
-0.000168634
-0.000194639
-0.000213453
-0.000225749
-0.000232124
-0.000233268
-0.000230046
-0.000223418
-0.000214311
-0.000203535
-0.000191751
-0.000179465
-0.000167049
-0.000154767
-0.000142796
-0.000131246
-0.000120181
-0.000109626
-9.95845e-005
-9.0041e-005
-8.09689e-005
-7.23347e-005
-6.41006e-005
-5.62269e-005
-4.86732e-005
-4.13991e-005
-4.13991e-005
4.13778e-005
4.13778e-005
4.86608e-005
5.62754e-005
6.42717e-005
7.27023e-005
8.16218e-005
9.10856e-005
0.000101148
0.000111861
0.000123268
0.0001354
0.000148266
0.000161843
0.000176059
0.000190772
0.000205745
0.000220605
0.000234807
0.000247586
0.000257926
0.000264592
0.000266247
0.000261723
0.000250255
0.000231236
0.00020333
0.000165166
0.000114633
5.81471e-005
4.31283e-010
-5.81473e-005
-0.000114635
-0.000165169
-0.000203334
-0.000231242
-0.000250262
-0.00026173
-0.000266253
-0.000264597
-0.000257932
-0.000247591
-0.000234812
-0.000220609
-0.000205748
-0.000190775
-0.000176061
-0.000161844
-0.000148267
-0.000135401
-0.000123269
-0.000111861
-0.000101148
-9.10852e-005
-8.16214e-005
-7.27018e-005
-6.42712e-005
-5.62749e-005
-4.86604e-005
-4.13773e-005
-4.13773e-005
4.10724e-005
4.10724e-005
4.83167e-005
5.59418e-005
6.40081e-005
7.25808e-005
8.17302e-005
9.15311e-005
0.000102062
0.000113403
0.000125632
0.000138821
0.000153028
0.000168282
0.000184573
0.000201823
0.000219853
0.000238337
0.000256732
0.000274195
0.000289486
0.000300929
0.000306554
0.000304647
0.000294613
0.000276725
0.000248288
0.000207732
0.000141386
7.00179e-005
2.9947e-009
-7.00135e-005
-0.000141386
-0.000207734
-0.000248294
-0.000276735
-0.000294623
-0.000304655
-0.000306561
-0.000300935
-0.000289492
-0.0002742
-0.000256737
-0.000238341
-0.000219856
-0.000201825
-0.000184574
-0.000168283
-0.000153028
-0.000138821
-0.000125632
-0.000113402
-0.000102061
-9.15305e-005
-8.17296e-005
-7.25802e-005
-6.40074e-005
-5.59411e-005
-4.8316e-005
-4.10719e-005
-4.10719e-005
4.04417e-005
4.04417e-005
4.75915e-005
5.5167e-005
6.32381e-005
7.18827e-005
8.11872e-005
9.12468e-005
0.000102166
0.000114056
0.000127036
0.000141225
0.000156741
0.000173684
0.000192129
0.000212093
0.000233508
0.000256156
0.000279589
0.000302975
0.000324894
0.000343083
0.000354393
0.000355696
0.000346825
0.000332762
0.000305366
0.000275994
0.000173151
8.05239e-005
5.29608e-009
-8.05119e-005
-0.00017314
-0.000275996
-0.000305384
-0.000332779
-0.000346839
-0.000355708
-0.0003544
-0.00034309
-0.0003249
-0.000302981
-0.000279593
-0.00025616
-0.00023351
-0.000212095
-0.000192129
-0.000173684
-0.00015674
-0.000141225
-0.000127035
-0.000114055
-0.000102165
-9.12459e-005
-8.11863e-005
-7.18818e-005
-6.32373e-005
-5.51662e-005
-4.75908e-005
-4.04411e-005
-4.04411e-005
3.94483e-005
3.94483e-005
4.64408e-005
5.38966e-005
6.18946e-005
7.05247e-005
7.9889e-005
9.01033e-005
0.000101298
0.00011362
0.00012723
0.000142303
0.000159026
0.000177586
0.000198164
0.000220913
0.000245928
0.000273193
0.000302491
0.00033322
0.00036403
0.000392114
0.000412235
0.00041692
0.000404231
0.000402106
0.000364426
0.000409358
0.000193833
7.84537e-005
3.17441e-009
-7.84427e-005
-0.000193821
-0.000409375
-0.000364454
-0.000402119
-0.000404252
-0.000416935
-0.000412243
-0.000392122
-0.000364037
-0.000333227
-0.000302495
-0.000273196
-0.00024593
-0.000220914
-0.000198164
-0.000177585
-0.000159025
-0.000142302
-0.000127229
-0.000113619
-0.000101297
-9.0102e-005
-7.98878e-005
-7.05236e-005
-6.18936e-005
-5.38956e-005
-4.64399e-005
-3.94475e-005
-3.94475e-005
3.80608e-005
3.80608e-005
4.48266e-005
5.2084e-005
5.99192e-005
6.84326e-005
7.77408e-005
8.79791e-005
9.93039e-005
0.000111896
0.00012596
0.000141732
0.000159473
0.000179469
0.000202029
0.000227468
0.000256098
0.000288196
0.00032396
0.000363386
0.000405889
0.000449105
0.000485511
0.00049548
0.000451243
0.000503071
0.000349024
0.000388306
0.000169307
6.71272e-005
-1.4082e-008
-6.71637e-005
-0.000169366
-0.000388363
-0.000349067
-0.000503117
-0.000451282
-0.000495495
-0.00048552
-0.000449114
-0.000405896
-0.000363391
-0.000323964
-0.000288198
-0.000256099
-0.000227468
-0.000202028
-0.000179468
-0.000159471
-0.000141731
-0.000125959
-0.000111894
-9.93023e-005
-8.79776e-005
-7.77394e-005
-6.84313e-005
-5.9918e-005
-5.20829e-005
-4.48257e-005
-3.80599e-005
-3.80599e-005
3.62561e-005
3.62561e-005
4.2721e-005
4.96935e-005
5.72655e-005
6.55457e-005
7.46627e-005
8.47685e-005
9.60429e-005
0.000108698
0.000122984
0.000139193
0.000157665
0.00017879
0.000203014
0.000230833
0.000262801
0.000299535
0.000341768
0.000390474
0.000447033
0.000512903
0.000585151
0.000623218
0.000413151
0.000433696
0.000198635
1.12106e-005
7.03231e-005
4.65863e-005
-2.82898e-008
-4.66551e-005
-7.04081e-005
-1.12645e-005
-0.000198689
-0.000433797
-0.00041325
-0.000623302
-0.000585175
-0.000512904
-0.000447036
-0.000390476
-0.000341769
-0.000299534
-0.0002628
-0.000230832
-0.000203012
-0.000178788
-0.000157662
-0.000139191
-0.000122982
-0.000108696
-9.6041e-005
-8.47667e-005
-7.4661e-005
-6.55442e-005
-5.72642e-005
-4.96923e-005
-4.27199e-005
-3.62552e-005
-3.62552e-005
3.40214e-005
3.40214e-005
4.01077e-005
4.67035e-005
5.39037e-005
6.18222e-005
7.05958e-005
8.03893e-005
9.14012e-005
0.00010387
0.000118085
0.000134391
0.000153203
0.000175013
0.000200403
0.000230051
0.000264737
0.000305373
0.000353106
0.000409708
0.000478868
0.000570314
0.000711708
0.00057165
0.000271879
6.4405e-005
4.26479e-005
-0.000165381
-1.09162e-005
1.63558e-005
-1.6113e-008
-1.63829e-005
1.09072e-005
0.000165361
-4.26955e-005
-6.44607e-005
-0.000271976
-0.000571738
-0.000711752
-0.000570321
-0.000478865
-0.000409706
-0.000353105
-0.000305372
-0.000264735
-0.000230048
-0.0002004
-0.00017501
-0.000153199
-0.000134388
-0.000118082
-0.000103868
-9.13989e-005
-8.03872e-005
-7.05939e-005
-6.18205e-005
-5.39022e-005
-4.67022e-005
-4.01065e-005
-3.40204e-005
-3.40204e-005
3.13558e-005
3.13558e-005
3.69847e-005
4.31091e-005
4.98237e-005
5.72434e-005
6.55089e-005
7.47918e-005
8.53021e-005
9.72975e-005
0.000111095
0.000127084
0.000145742
0.000167656
0.000193536
0.000224231
0.000260725
0.000304117
0.000355576
0.000416387
0.000488459
0.000576653
0.000695972
0.000232903
0.000172745
-8.01858e-005
-3.55089e-006
-5.01586e-005
-1.76642e-005
-9.74183e-007
2.47759e-009
9.86471e-007
1.76899e-005
5.01648e-005
3.55134e-006
8.0191e-005
-0.000172781
-0.000233
-0.0006962
-0.000576719
-0.000488461
-0.000416388
-0.000355575
-0.000304114
-0.000260721
-0.000224226
-0.000193532
-0.000167652
-0.000145738
-0.00012708
-0.000111092
-9.72946e-005
-8.52994e-005
-7.47894e-005
-6.55069e-005
-5.72416e-005
-4.9822e-005
-4.31077e-005
-3.69834e-005
-3.13547e-005
-3.13547e-005
2.82719e-005
2.82719e-005
3.33661e-005
3.89247e-005
4.50384e-005
5.1819e-005
5.94048e-005
6.79669e-005
7.77179e-005
8.89228e-005
0.000101913