# vtk DataFile Version 3.0
vtk output
ASCII
DATASET STRUCTURED_GRID
DIMENSIONS 61 71 1
POINTS 4331 double
0 0 0
0.05 0 0
0.1 0 0
0.15 0 0
0.2 0 0
0.25 0 0
0.3 0 0
0.35 0 0
0.4 0 0
0.45 0 0
0.5 0 0
0.55 0 0
0.6 0 0
0.65 0 0
0.7 0 0
0.75 0 0
0.8 0 0
0.85 0 0
0.9 0 0
0.95 0 0
1 0 0
1.05 0 0
1.1 0 0
1.15 0 0
1.2 0 0
1.25 0 0
1.3 0 0
1.35 0 0
1.4 0 0
1.45 0 0
1.5 0 0
1.55 0 0
1.6 0 0
1.65 0 0
1.7 0 0
1.75 0 0
1.8 0 0
1.85 0 0
1.9 0 0
1.95 0 0
2 0 0
2.05 0 0
2.1 0 0
2.15 0 0
2.2 0 0
2.25 0 0
2.3 0 0
2.35 0 0
2.4 0 0
2.45 0 0
2.5 0 0
2.55 0 0
2.6 0 0
2.65 0 0
2.7 0 0
2.75 0 0
2.8 0 0
2.85 0 0
2.9 0 0
2.95 0 0
3 0 0
0 0.05 0
0.05 0.05 0
0.1 0.05 0
0.15 0.05 0
0.2 0.05 0
0.25 0.05 0
0.3 0.05 0
0.35 0.05 0
0.4 0.05 0
0.45 0.05 0
0.5 0.05 0
0.55 0.05 0
0.6 0.05 0
0.65 0.05 0
0.7 0.05 0
0.75 0.05 0
0.8 0.05 0
0.85 0.05 0
0.9 0.05 0
0.95 0.05 0
1 0.05 0
1.05 0.05 0
1.1 0.05 0
1.15 0.05 0
1.2 0.05 0
1.25 0.05 0
1.3 0.05 0
1.35 0.05 0
1.4 0.05 0
1.45 0.05 0
1.5 0.05 0
1.55 0.05 0
1.6 0.05 0
1.65 0.05 0
1.7 0.05 0
1.75 0.05 0
1.8 0.05 0
1.85 0.05 0
1.9 0.05 0
1.95 0.05 0
2 0.05 0
2.05 0.05 0
2.1 0.05 0
2.15 0.05 0
2.2 0.05 0
2.25 0.05 0
2.3 0.05 0
2.35 0.05 0
2.4 0.05 0
2.45 0.05 0
2.5 0.05 0
2.55 0.05 0
2.6 0.05 0
2.65 0.05 0
2.7 0.05 0
2.75 0.05 0
2.8 0.05 0
2.85 0.05 0
2.9 0.05 0
2.95 0.05 0
3 0.05 0
0 0.1 0
0.05 0.1 0
0.1 0.1 0
0.15 0.1 0
0.2 0.1 0
0.25 0.1 0
0.3 0.1 0
0.35 0.1 0
0.4 0.1 0
0.45 0.1 0
0.5 0.1 0
0.55 0.1 0
0.6 0.1 0
0.65 0.1 0
0.7 0.1 0
0.75 0.1 0
0.8 0.1 0
0.85 0.1 0
0.9 0.1 0
0.95 0.1 0
1 0.1 0
1.05 0.1 0
1.1 0.1 0
1.15 0.1 0
1.2 0.1 0
1.25 0.1 0
1.3 0.1 0
1.35 0.1 0
1.4 0.1 0
1.45 0.1 0
1.5 0.1 0
1.55 0.1 0
1.6 0.1 0
1.65 0.1 0
1.7 0.1 0
1.75 0.1 0
1.8 0.1 0
1.85 0.1 0
1.9 0.1 0
1.95 0.1 0
2 0.1 0
2.05 0.1 0
2.1 0.1 0
2.15 0.1 0
2.2 0.1 0
2.25 0.1 0
2.3 0.1 0
2.35 0.1 0
2.4 0.1 0
2.45 0.1 0
2.5 0.1 0
2.55 0.1 0
2.6 0.1 0
2.65 0.1 0
2.7 0.1 0
2.75 0.1 0
2.8 0.1 0
2.85 0.1 0
2.9 0.1 0
2.95 0.1 0
3 0.1 0
0 0.15 0
0.05 0.15 0
0.1 0.15 0
0.15 0.15 0
0.2 0.15 0
0.25 0.15 0
0.3 0.15 0
0.35 0.15 0
0.4 0.15 0
0.45 0.15 0
0.5 0.15 0
0.55 0.15 0
0.6 0.15 0
0.65 0.15 0
0.7 0.15 0
0.75 0.15 0
0.8 0.15 0
0.85 0.15 0
0.9 0.15 0
0.95 0.15 0
1 0.15 0
1.05 0.15 0
1.1 0.15 0
1.15 0.15 0
1.2 0.15 0
1.25 0.15 0
1.3 0.15 0
1.35 0.15 0
1.4 0.15 0
1.45 0.15 0
1.5 0.15 0
1.55 0.15 0
1.6 0.15 0
1.65 0.15 0
1.7 0.15 0
1.75 0.15 0
1.8 0.15 0
1.85 0.15 0
1.9 0.15 0
1.95 0.15 0
2 0.15 0
2.05 0.15 0
2.1 0.15 0
2.15 0.15 0
2.2 0.15 0
2.25 0.15 0
2.3 0.15 0
2.35 0.15 0
2.4 0.15 0
2.45 0.15 0
2.5 0.15 0
2.55 0.15 0
2.6 0.15 0
2.65 0.15 0
2.7 0.15 0
2.75 0.15 0
2.8 0.15 0
2.85 0.15 0
2.9 0.15 0
2.95 0.15 0
3 0.15 0
0 0.2 0
0.05 0.2 0
0.1 0.2 0
0.15 0.2 0
0.2 0.2 0
0.25 0.2 0
0.3 0.2 0
0.35 0.2 0
0.4 0.2 0
0.45 0.2 0
0.5 0.2 0
0.55 0.2 0
0.6 0.2 0
0.65 0.2 0
0.7 0.2 0
0.75 0.2 0
0.8 0.2 0
0.85 0.2 0
0.9 0.2 0
0.95 0.2 0
1 0.2 0
1.05 0.2 0
1.1 0.2 0
1.15 0.2 0
1.2 0.2 0
1.25 0.2 0
1.3 0.2 0
1.35 0.2 0
1.4 0.2 0
1.45 0.2 0
1.5 0.2 0
1.55 0.2 0
1.6 0.2 0
1.65 0.2 0
1.7 0.2 0
1.75 0.2 0
1.8 0.2 0
1.85 0.2 0
1.9 0.2 0
1.95 0.2 0
2 0.2 0
2.05 0.2 0
2.1 0.2 0
2.15 0.2 0
2.2 0.2 0
2.25 0.2 0
2.3 0.2 0
2.35 0.2 0
2.4 0.2 0
2.45 0.2 0
2.5 0.2 0
2.55 0.2 0
2.6 0.2 0
2.65 0.2 0
2.7 0.2 0
2.75 0.2 0
2.8 0.2 0
2.85 0.2 0
2.9 0.2 0
2.95 0.2 0
3 0.2 0
0 0.25 0
0.05 0.25 0
0.1 0.25 0
0.15 0.25 0
0.2 0.25 0
0.25 0.25 0
0.3 0.25 0
0.35 0.25 0
0.4 0.25 0
0.45 0.25 0
0.5 0.25 0
0.55 0.25 0
0.6 0.25 0
0.65 0.25 0
0.7 0.25 0
0.75 0.25 0
0.8 0.25 0
0.85 0.25 0
0.9 0.25 0
0.95 0.25 0
1 0.25 0
1.05 0.25 0
1.1 0.25 0
1.15 0.25 0
1.2 0.25 0
1.25 0.25 0
1.3 0.25 0
1.35 0.25 0
1.4 0.25 0
1.45 0.25 0
1.5 0.25 0
1.55 0.25 0
1.6 0.25 0
1.65 0.25 0
1.7 0.25 0
1.75 0.25 0
1.8 0.25 0
1.85 0.25 0
1.9 0.25 0
1.95 0.25 0
2 0.25 0
2.05 0.25 0
2.1 0.25 0
2.15 0.25 0
2.2 0.25 0
2.25 0.25 0
2.3 0.25 0
2.35 0.25 0
2.4 0.25 0
2.45 0.25 0
2.5 0.25 0
2.55 0.25 0
2.6 0.25 0
2.65 0.25 0
2.7 0.25 0
2.75 0.25 0
2.8 0.25 0
2.85 0.25 0
2.9 0.25 0
2.95 0.25 0
3 0.25 0
0 0.3 0
0.05 0.3 0
0.1 0.3 0
0.15 0.3 0
0.2 0.3 0
0.25 0.3 0
0.3 0.3 0
0.35 0.3 0
0.4 0.3 0
0.45 0.3 0
0.5 0.3 0
0.55 0.3 0
0.6 0.3 0
0.65 0.3 0
0.7 0.3 0
0.75 0.3 0
0.8 0.3 0
0.85 0.3 0
0.9 0.3 0
0.95 0.3 0
1 0.3 0
1.05 0.3 0
1.1 0.3 0
1.15 0.3 0
1.2 0.3 0
1.25 0.3 0
1.3 0.3 0
1.35 0.3 0
1.4 0.3 0
1.45 0.3 0
1.5 0.3 0
1.55 0.3 0
1.6 0.3 0
1.65 0.3 0
1.7 0.3 0
1.75 0.3 0
1.8 0.3 0
1.85 0.3 0
1.9 0.3 0
1.95 0.3 0
2 0.3 0
2.05 0.3 0
2.1 0.3 0
2.15 0.3 0
2.2 0.3 0
2.25 0.3 0
2.3 0.3 0
2.35 0.3 0
2.4 0.3 0
2.45 0.3 0
2.5 0.3 0
2.55 0.3 0
2.6 0.3 0
2.65 0.3 0
2.7 0.3 0
2.75 0.3 0
2.8 0.3 0
2.85 0.3 0
2.9 0.3 0
2.95 0.3 0
3 0.3 0
0 0.35 0
0.05 0.35 0
0.1 0.35 0
0.15 0.35 0
0.2 0.35 0
0.25 0.35 0
0.3 0.35 0
0.35 0.35 0
0.4 0.35 0
0.45 0.35 0
0.5 0.35 0
0.55 0.35 0
0.6 0.35 0
0.65 0.35 0
0.7 0.35 0
0.75 0.35 0
0.8 0.35 0
0.85 0.35 0
0.9 0.35 0
0.95 0.35 0
1 0.35 0
1.05 0.35 0
1.1 0.35 0
1.15 0.35 0
1.2 0.35 0
1.25 0.35 0
1.3 0.35 0
1.35 0.35 0
1.4 0.35 0
1.45 0.35 0
1.5 0.35 0
1.55 0.35 0
1.6 0.35 0
1.65 0.35 0
1.7 0.35 0
1.75 0.35 0
1.8 0.35 0
1.85 0.35 0
1.9 0.35 0
1.95 0.35 0
2 0.35 0
2.05 0.35 0
2.1 0.35 0
2.15 0.35 0
2.2 0.35 0
2.25 0.35 0
2.3 0.35 0
2.35 0.35 0
2.4 0.35 0
2.45 0.35 0
2.5 0.35 0
2.55 0.35 0
2.6 0.35 0
2.65 0.35 0
2.7 0.35 0
2.75 0.35 0
2.8 0.35 0
2.85 0.35 0
2.9 0.35 0
2.95 0.35 0
3 0.35 0
0 0.4 0
0.05 0.4 0
0.1 0.4 0
0.15 0.4 0
0.2 0.4 0
0.25 0.4 0
0.3 0.4 0
0.35 0.4 0
0.4 0.4 0
0.45 0.4 0
0.5 0.4 0
0.55 0.4 0
0.6 0.4 0
0.65 0.4 0
0.7 0.4 0
0.75 0.4 0
0.8 0.4 0
0.85 0.4 0
0.9 0.4 0
0.95 0.4 0
1 0.4 0
1.05 0.4 0
1.1 0.4 0
1.15 0.4 0
1.2 0.4 0
1.25 0.4 0
1.3 0.4 0
1.35 0.4 0
1.4 0.4 0
1.45 0.4 0
1.5 0.4 0
1.55 0.4 0
1.6 0.4 0
1.65 0.4 0
1.7 0.4 0
1.75 0.4 0
1.8 0.4 0
1.85 0.4 0
1.9 0.4 0
1.95 0.4 0
2 0.4 0
2.05 0.4 0
2.1 0.4 0
2.15 0.4 0
2.2 0.4 0
2.25 0.4 0
2.3 0.4 0
2.35 0.4 0
2.4 0.4 0
2.45 0.4 0
2.5 0.4 0
2.55 0.4 0
2.6 0.4 0
2.65 0.4 0
2.7 0.4 0
2.75 0.4 0
2.8 0.4 0
2.85 0.4 0
2.9 0.4 0
2.95 0.4 0
3 0.4 0
0 0.45 0
0.05 0.45 0
0.1 0.45 0
0.15 0.45 0
0.2 0.45 0
0.25 0.45 0
0.3 0.45 0
0.35 0.45 0
0.4 0.45 0
0.45 0.45 0
0.5 0.45 0
0.55 0.45 0
0.6 0.45 0
0.65 0.45 0
0.7 0.45 0
0.75 0.45 0
0.8 0.45 0
0.85 0.45 0
0.9 0.45 0
0.95 0.45 0
1 0.45 0
1.05 0.45 0
1.1 0.45 0
1.15 0.45 0
1.2 0.45 0
1.25 0.45 0
1.3 0.45 0
1.35 0.45 0
1.4 0.45 0
1.45 0.45 0
1.5 0.45 0
1.55 0.45 0
1.6 0.45 0
1.65 0.45 0
1.7 0.45 0
1.75 0.45 0
1.8 0.45 0
1.85 0.45 0
1.9 0.45 0
1.95 0.45 0
2 0.45 0
2.05 0.45 0
2.1 0.45 0
2.15 0.45 0
2.2 0.45 0
2.25 0.45 0
2.3 0.45 0
2.35 0.45 0
2.4 0.45 0
2.45 0.45 0
2.5 0.45 0
2.55 0.45 0
2.6 0.45 0
2.65 0.45 0
2.7 0.45 0
2.75 0.45 0
2.8 0.45 0
2.85 0.45 0
2.9 0.45 0
2.95 0.45 0
3 0.45 0
0 0.5 0
0.05 0.5 0
0.1 0.5 0
0.15 0.5 0
0.2 0.5 0
0.25 0.5 0
0.3 0.5 0
0.35 0.5 0
0.4 0.5 0
0.45 0.5 0
0.5 0.5 0
0.55 0.5 0
0.6 0.5 0
0.65 0.5 0
0.7 0.5 0
0.75 0.5 0
0.8 0.5 0
0.85 0.5 0
0.9 0.5 0
0.95 0.5 0
1 0.5 0
1.05 0.5 0
1.1 0.5 0
1.15 0.5 0
1.2 0.5 0
1.25 0.5 0
1.3 0.5 0
1.35 0.5 0
1.4 0.5 0
1.45 0.5 0
1.5 0.5 0
1.55 0.5 0
1.6 0.5 0
1.65 0.5 0
1.7 0.5 0
1.75 0.5 0
1.8 0.5 0
1.85 0.5 0
1.9 0.5 0
1.95 0.5 0
2 0.5 0
2.05 0.5 0
2.1 0.5 0
2.15 0.5 0
2.2 0.5 0
2.25 0.5 0
2.3 0.5 0
2.35 0.5 0
2.4 0.5 0
2.45 0.5 0
2.5 0.5 0
2.55 0.5 0
2.6 0.5 0
2.65 0.5 0
2.7 0.5 0
2.75 0.5 0
2.8 0.5 0
2.85 0.5 0
2.9 0.5 0
2.95 0.5 0
3 0.5 0
0 0.55 0
0.05 0.55 0
0.1 0.55 0
0.15 0.55 0
0.2 0.55 0
0.25 0.55 0
0.3 0.55 0
0.35 0.55 0
0.4 0.55 0
0.45 0.55 0
0.5 0.55 0
0.55 0.55 0
0.6 0.55 0
0.65 0.55 0
0.7 0.55 0
0.75 0.55 0
0.8 0.55 0
0.85 0.55 0
0.9 0.55 0
0.95 0.55 0
1 0.55 0
1.05 0.55 0
1.1 0.55 0
1.15 0.55 0
1.2 0.55 0
1.25 0.55 0
1.3 0.55 0
1.35 0.55 0
1.4 0.55 0
1.45 0.55 0
1.5 0.55 0
1.55 0.55 0
1.6 0.55 0
1.65 0.55 0
1.7 0.55 0
1.75 0.55 0
1.8 0.55 0
1.85 0.55 0
1.9 0.55 0
1.95 0.55 0
2 0.55 0
2.05 0.55 0
2.1 0.55 0
2.15 0.55 0
2.2 0.55 0
2.25 0.55 0
2.3 0.55 0
2.35 0.55 0
2.4 0.55 0
2.45 0.55 0
2.5 0.55 0
2.55 0.55 0
2.6 0.55 0
2.65 0.55 0
2.7 0.55 0
2.75 0.55 0
2.8 0.55 0
2.85 0.55 0
2.9 0.55 0
2.95 0.55 0
3 0.55 0
0 0.6 0
0.05 0.6 0
0.1 0.6 0
0.15 0.6 0
0.2 0.6 0
0.25 0.6 0
0.3 0.6 0
0.35 0.6 0
0.4 0.6 0
0.45 0.6 0
0.5 0.6 0
0.55 0.6 0
0.6 0.6 0
0.65 0.6 0
0.7 0.6 0
0.75 0.6 0
0.8 0.6 0
0.85 0.6 0
0.9 0.6 0
0.95 0.6 0
1 0.6 0
1.05 0.6 0
1.1 0.6 0
1.15 0.6 0
1.2 0.6 0
1.25 0.6 0
1.3 0.6 0
1.35 0.6 0
1.4 0.6 0
1.45 0.6 0
1.5 0.6 0
1.55 0.6 0
1.6 0.6 0
1.65 0.6 0
1.7 0.6 0
1.75 0.6 0
1.8 0.6 0
1.85 0.6 0
1.9 0.6 0
1.95 0.6 0
2 0.6 0
2.05 0.6 0
2.1 0.6 0
2.15 0.6 0
2.2 0.6 0
2.25 0.6 0
2.3 0.6 0
2.35 0.6 0
2.4 0.6 0
2.45 0.6 0
2.5 0.6 0
2.55 0.6 0
2.6 0.6 0
2.65 0.6 0
2.7 0.6 0
2.75 0.6 0
2.8 0.6 0
2.85 0.6 0
2.9 0.6 0
2.95 0.6 0
3 0.6 0
0 0.65 0
0.05 0.65 0
0.1 0.65 0
0.15 0.65 0
0.2 0.65 0
0.25 0.65 0
0.3 0.65 0
0.35 0.65 0
0.4 0.65 0
0.45 0.65 0
0.5 0.65 0
0.55 0.65 0
0.6 0.65 0
0.65 0.65 0
0.7 0.65 0
0.75 0.65 0
0.8 0.65 0
0.85 0.65 0
0.9 0.65 0
0.95 0.65 0
1 0.65 0
1.05 0.65 0
1.1 0.65 0
1.15 0.65 0
1.2 0.65 0
1.25 0.65 0
1.3 0.65 0
1.35 0.65 0
1.4 0.65 0
1.45 0.65 0
1.5 0.65 0
1.55 0.65 0
1.6 0.65 0
1.65 0.65 0
1.7 0.65 0
1.75 0.65 0
1.8 0.65 0
1.85 0.65 0
1.9 0.65 0
1.95 0.65 0
2 0.65 0
2.05 0.65 0
2.1 0.65 0
2.15 0.65 0
2.2 0.65 0
2.25 0.65 0
2.3 0.65 0
2.35 0.65 0
2.4 0.65 0
2.45 0.65 0
2.5 0.65 0
[...]
POINT_DATA 4331
SCALARS u double
LOOKUP_TABLE default
0
0
0
0
0
0
0
0
0
0
0
0
0
0
0
0
0
0
0
0
0
0
0
0
0
0
0
0
0
0
0
0
0
0
0
0
0
0
0
0
0
0
0
0
0
0
0
0
0
0
0
0
0
0
0
0
0
0
0
0
0
2.17995e-005
2.17995e-005
2.66017e-005
3.12855e-005
3.58328e-005
4.02215e-005
4.44254e-005
4.84144e-005
5.2155e-005
5.56096e-005
5.87374e-005
6.14945e-005
6.3834e-005
6.57075e-005
6.70651e-005
6.78576e-005
6.80371e-005
6.75595e-005
6.6386e-005
6.44855e-005
6.18366e-005
5.84304e-005
5.42716e-005
4.93813e-005
4.37974e-005
3.75757e-005
3.07894e-005
2.35285e-005
1.58975e-005
8.01268e-006
-1.17071e-009
-8.01502e-006
-1.58998e-005
-2.35308e-005
-3.07917e-005
-3.75779e-005
-4.37995e-005
-4.93834e-005
-5.42736e-005
-5.84322e-005
-6.18384e-005
-6.44872e-005
-6.63877e-005
-6.75611e-005
-6.80386e-005
-6.7859e-005
-6.70664e-005
-6.57087e-005
-6.38352e-005
-6.14955e-005
-5.87384e-005
-5.56104e-005
-5.21557e-005
-4.84151e-005
-4.4426e-005
-4.0222e-005
-3.58332e-005
-3.12858e-005
-2.6602e-005
-2.17997e-005
-2.17997e-005
2.21741e-005
2.21741e-005
2.70485e-005
3.18197e-005
3.6462e-005
4.09505e-005
4.52578e-005
4.93531e-005
5.3202e-005
5.67664e-005
6.00044e-005
6.28707e-005
6.53168e-005
6.7292e-005
6.87441e-005
6.9621e-005
6.98715e-005
6.9448e-005
6.8308e-005
6.64165e-005
6.37489e-005
6.02928e-005
5.60508e-005
5.10421e-005
4.53044e-005
3.88945e-005
3.18881e-005
2.43792e-005
1.64777e-005
8.30683e-006
-1.18537e-009
-8.30919e-006
-1.64801e-005
-2.43815e-005
-3.18903e-005
-3.88967e-005
-4.53066e-005
-5.10442e-005
-5.60528e-005
-6.02947e-005
-6.37508e-005
-6.64183e-005
-6.83096e-005
-6.94496e-005
-6.9873e-005
-6.96224e-005
-6.87455e-005
-6.72932e-005
-6.53179e-005
-6.28717e-005
-6.00054e-005
-5.67673e-005
-5.32028e-005
-4.93538e-005
-4.52584e-005
-4.0951e-005
-3.64624e-005
-3.182e-005
-2.70488e-005
-2.21743e-005
-2.21743e-005
2.24204e-005
2.24204e-005
2.7337e-005
3.21569e-005
3.68568e-005
4.14119e-005
4.57951e-005
4.99755e-005
5.39188e-005
5.75864e-005
6.09357e-005
6.39202e-005
6.64897e-005
6.85911e-005
7.01692e-005
7.11679e-005
7.15319e-005
7.12082e-005
7.01489e-005
6.83133e-005
6.5671e-005
6.22042e-005
5.7911e-005
5.28074e-005
4.69292e-005
4.03336e-005
3.30989e-005
2.53239e-005
1.71257e-005
8.63642e-006
-1.19943e-009
-8.63881e-006
-1.71281e-005
-2.53263e-005
-3.31012e-005
-4.03358e-005
-4.69314e-005
-5.28094e-005
-5.7913e-005
-6.22061e-005
-6.56728e-005
-6.83151e-005
-7.01506e-005
-7.12098e-005
-7.15334e-005
-7.11694e-005
-7.01705e-005
-6.85923e-005
-6.64908e-005
-6.39212e-005
-6.09366e-005
-5.75872e-005
-5.39196e-005
-4.99762e-005
-4.57957e-005
-4.14124e-005
-3.68572e-005
-3.21573e-005
-2.73373e-005
-2.24206e-005
-2.24206e-005
2.27401e-005
2.27401e-005
2.77207e-005
3.2612e-005
3.73936e-005
4.20422e-005
4.65314e-005
5.08311e-005
5.49068e-005
5.87198e-005
6.22266e-005
6.53791e-005
6.81249e-005
7.04075e-005
7.21675e-005
7.33434e-005
7.38735e-005
7.36976e-005
7.27598e-005
7.10108e-005
6.84115e-005
6.49365e-005
6.05765e-005
5.53424e-005
4.92673e-005
4.24083e-005
3.48471e-005
2.66896e-005
1.80633e-005
9.11355e-006
-1.21917e-009
-9.11598e-006
-1.80657e-005
-2.6692e-005
-3.48494e-005
-4.24105e-005
-4.92694e-005
-5.53445e-005
-6.05785e-005
-6.49384e-005
-6.84134e-005
-7.10125e-005
-7.27614e-005
-7.36992e-005
-7.3875e-005
-7.33448e-005
-7.21688e-005
-7.04087e-005
-6.8126e-005
-6.53801e-005
-6.22275e-005
-5.87206e-005
-5.49076e-005
-5.08317e-005
-4.6532e-005
-4.20427e-005
-3.7394e-005
-3.26124e-005
-2.77209e-005
-2.27403e-005
-2.27403e-005
2.31313e-005
2.31313e-005
2.81935e-005
3.31768e-005
3.80634e-005
4.28319e-005
4.74574e-005
5.19105e-005
5.61575e-005
6.01593e-005
6.38717e-005
6.72447e-005
7.02231e-005
7.27464e-005
7.47497e-005
7.61646e-005
7.6921e-005
7.6949e-005
7.61817e-005
7.45583e-005
7.20279e-005
6.85535e-005
6.4116e-005
5.87184e-005
5.23892e-005
4.5185e-005
3.71916e-005
2.85242e-005
1.93242e-005
9.75572e-006
-1.24484e-009
-9.7582e-006
-1.93267e-005
-2.85266e-005
-3.7194e-005
-4.51872e-005
-5.23914e-005
-5.87205e-005
-6.4118e-005
-6.85555e-005
-7.20298e-005
-7.45601e-005
-7.61834e-005
-7.69506e-005
-7.69225e-005
-7.6166e-005
-7.4751e-005
-7.27477e-005
-7.02243e-005
-6.72458e-005
-6.38726e-005
-6.01601e-005
-5.61582e-005
-5.19112e-005
-4.74579e-005
-4.28324e-005
-3.80638e-005
-3.31772e-005
-2.81937e-005
-2.31315e-005
-2.31315e-005
2.35867e-005
2.35867e-005
2.87451e-005
3.38384e-005
3.88513e-005
4.37647e-005
4.85555e-005
5.31961e-005
5.76532e-005
6.18883e-005
6.58561e-005
6.9505e-005
7.27765e-005
7.56054e-005
7.79202e-005
7.96442e-005
8.06968e-005
8.09956e-005
8.04597e-005
7.90128e-005
7.65883e-005
7.31336e-005
6.86156e-005
6.3026e-005
5.63862e-005
4.87508e-005
4.02103e-005
3.08912e-005
2.09537e-005
1.05864e-005
-1.27657e-009
-1.05889e-005
-2.09562e-005
-3.08937e-005
-4.02127e-005
-4.87531e-005
-5.63884e-005
-6.30282e-005
-6.86177e-005
-7.31356e-005
-7.65903e-005
-7.90147e-005
-8.04614e-005
-8.09972e-005
-8.06983e-005
-7.96457e-005
-7.79216e-005
-7.56066e-005
-7.27776e-005
-6.9506e-005
-6.5857e-005
-6.18891e-005
-5.7654e-005
-5.31967e-005
-4.85561e-005
-4.37652e-005
-3.88517e-005
-3.38387e-005
-2.87454e-005
-2.35869e-005
-2.35869e-005
2.40952e-005
2.40952e-005
2.93618e-005
3.45804e-005
3.97385e-005
4.482e-005
4.9804e-005
5.46649e-005
5.93711e-005
6.38844e-005
6.81593e-005
7.21426e-005
7.57724e-005
7.89783e-005
8.16815e-005
8.37953e-005
8.52263e-005
8.58769e-005
8.56484e-005
8.4445e-005
8.2179e-005
7.8777e-005
7.41867e-005
6.83839e-005
6.13787e-005
5.32216e-005
4.40076e-005
3.38767e-005
2.30129e-005
1.16374e-005
-1.31438e-009
-1.164e-005
-2.30155e-005
-3.38792e-005
-4.401e-005
-5.3224e-005
-6.13809e-005
-6.8386e-005
-7.41888e-005
-7.8779e-005
-8.21809e-005
-8.44469e-005
-8.56502e-005
-8.58786e-005
-8.52278e-005
-8.37967e-005
-8.16829e-005
-7.89796e-005
-7.57735e-005
-7.21436e-005
-6.81603e-005
-6.38852e-005
-5.93718e-005
-5.46656e-005
-4.98046e-005
-4.48204e-005
-3.97389e-005
-3.45807e-005
-2.93621e-005
-2.40954e-005
-2.40954e-005
2.46427e-005
2.46427e-005
3.00266e-005
3.53829e-005
4.07025e-005
4.59726e-005
5.11757e-005
5.62886e-005
6.12819e-005
6.61188e-005
7.07542e-005
7.51336e-005
7.91921e-005
8.2854e-005
8.60323e-005
8.8629e-005
9.0536e-005
9.16373e-005
9.18121e-005
9.09397e-005
8.89055e-005
8.56085e-005
8.09704e-005
7.4944e-005
6.7523e-005
5.87496e-005
4.87216e-005
3.75952e-005
2.55839e-005
1.29515e-005
-1.35802e-009
-1.29542e-005
-2.55866e-005
-3.75978e-005
-4.87241e-005
-5.8752e-005
-6.75253e-005
-7.49463e-005
-8.09725e-005
-8.56106e-005
-8.89074e-005
-9.09416e-005
-9.18139e-005
-9.1639e-005
-9.05376e-005
-8.86305e-005
-8.60337e-005
-8.28552e-005
-7.91932e-005
-7.51346e-005
-7.07551e-005
-6.61196e-005
-6.12826e-005
-5.62891e-005
-5.11761e-005
-4.5973e-005
-4.07028e-005
-3.53831e-005
-3.00268e-005
-2.46428e-005
-2.46428e-005
2.52124e-005
2.52124e-005
3.07191e-005
3.62219e-005
4.17159e-005
4.71923e-005
5.26374e-005
5.80317e-005
6.3349e-005
6.85548e-005
7.36052e-005
7.84454e-005
8.30083e-005
8.72131e-005
9.09646e-005
9.41523e-005
9.66514e-005
9.83241e-005
9.9023e-005
9.85962e-005
9.68946e-005
9.37813e-005
8.91423e-005
8.28989e-005
7.50196e-005
6.55322e-005
5.4534e-005
4.21985e-005
2.87761e-005
1.4586e-005
-1.40662e-009
-1.45888e-005
-2.87789e-005
-4.22012e-005
-5.45366e-005
-6.55347e-005
-7.5022e-005
-8.29012e-005
-8.91445e-005
-9.37834e-005
-9.68966e-005
-9.85981e-005
-9.90249e-005
-9.83259e-005
-9.66531e-005
-9.41538e-005
-9.0966e-005
-8.72144e-005
-8.30094e-005
-7.84464e-005
-7.3606e-005
-6.85555e-005
-6.33496e-005
-5.80323e-005
-5.26378e-005
-4.71927e-005
-4.17162e-005
-3.62222e-005
-3.07193e-005
-2.52125e-005
-2.52125e-005
2.57845e-005
2.57845e-005
3.14156e-005
3.70698e-005
4.2747e-005
4.84433e-005
5.41498e-005
5.98519e-005
6.55275e-005
7.1146e-005
7.66663e-005
8.20345e-005
8.71825e-005
9.20256e-005
9.64606e-005
0.000100364
0.000103593
0.000105985
0.00010736
0.000107527
0.000106295
0.00010348
9.89186e-005
9.24896e-005
8.41243e-005
7.38257e-005
6.16839e-005
4.78888e-005
3.27361e-005
1.66179e-005
-1.45805e-009
-1.66208e-005
-3.27389e-005
-4.78915e-005
-6.16865e-005
-7.38282e-005
-8.41267e-005
-9.24919e-005
-9.89209e-005
-0.000103482
-0.000106298
-0.000107529
-0.000107361
-0.000105987
-0.000103595
-0.000100366
-9.6462e-005
-9.20269e-005
-8.71837e-005
-8.20355e-005
-7.66671e-005
-7.11468e-005
-6.55281e-005
-5.98524e-005
-5.41502e-005
-4.84436e-005
-4.27473e-005
-3.707e-005
-3.14157e-005
-2.57846e-005
-2.57846e-005
2.63366e-005
2.63366e-005
3.20889e-005
3.78946e-005
4.3759e-005
4.9684e-005
5.56667e-005
6.16984e-005
6.77631e-005
7.38356e-005
7.98793e-005
8.58437e-005
9.16617e-005
9.72463e-005
0.000102488
0.000107251
0.000111372
0.000114662
0.000116903
0.000117858
0.00011728
0.000114923
0.000110563
0.000104017
9.51623e-005
8.39625e-005
7.04869e-005
5.49369e-005
3.76614e-005
1.91512e-005
-1.50754e-009
-1.91542e-005
-3.76644e-005
-5.49396e-005
-7.04896e-005
-8.39651e-005
-9.51648e-005
-0.000104019
-0.000110565
-0.000114925
-0.000117282
-0.00011786
-0.000116905
-0.000114664
-0.000111374
-0.000107252
-0.000102489
-9.72475e-005
-9.16628e-005
-8.58446e-005
-7.98801e-005
-7.38363e-005
-6.77637e-005
-6.16989e-005
-5.56671e-005
-4.96843e-005
-4.37592e-005
-3.78947e-005
-3.2089e-005
-2.63367e-005
-2.63367e-005
2.68438e-005
2.68438e-005
3.2709e-005
3.86606e-005
4.47105e-005
5.0867e-005
5.71346e-005
6.3512e-005
6.9991e-005
7.65539e-005
8.31715e-005
8.97993e-005
9.63741e-005
0.00010281
0.000108993
0.000114778
0.000119983
0.000124388
0.000127732
0.000129723
0.000130043
0.000128369
0.000124394
0.000117851
0.000108546
9.63752e-005
8.13646e-005
6.37103e-005
4.38218e-005
2.23269e-005
-1.54476e-009
-2.233e-005
-4.38248e-005
-6.37132e-005
-8.13673e-005
-9.63778e-005
-0.000108548
-0.000117854
-0.000124396
-0.000128372
-0.000130046
-0.000129725
-0.000127734
-0.000124389
-0.000119985
-0.00011478
-0.000108995
-0.000102811
-9.63752e-005
-8.98001e-005
-8.31722e-005
-7.65545e-005
-6.99914e-005
-6.35124e-005
-5.71349e-005
-5.08672e-005
-4.47106e-005
-3.86607e-005
-3.2709e-005
-2.68438e-005
-2.68438e-005
2.72786e-005
2.72786e-005
3.32424e-005
3.93284e-005
4.55552e-005
5.1939e-005
5.84926e-005
6.5224e-005
7.21347e-005
7.92176e-005
8.64534e-005
9.38077e-005
0.000101225
0.000108626
0.000115897
0.000122886
0.000129395
0.000135173
0.000139914
0.000143257
0.000144801
0.000144117
0.000140791
0.000134449
0.000124794
0.000111628
9.48861e-005
7.47183e-005
5.15887e-005
2.63363e-005
-1.54755e-009
-2.63394e-005
-5.15917e-005
-7.47212e-005
-9.48889e-005
-0.000111631
-0.000124797
-0.000134452
-0.000140794
-0.00014412
-0.000144803
-0.00014326
-0.000139916
-0.000135175
-0.000129397
-0.000122888
-0.000115898
-0.000108627
-0.000101226
-9.38085e-005
-8.64541e-005
-7.92181e-005
-7.21351e-005
-6.52243e-005
-5.84928e-005
-5.19391e-005
-4.55553e-005
-3.93284e-005
-3.32424e-005
-2.72786e-005
-2.72786e-005
2.76117e-005
2.76117e-005
3.36537e-005
3.98553e-005
4.62429e-005
5.28412e-005
5.96728e-005
6.67566e-005
7.41064e-005
8.17282e-005
8.9617e-005
9.77526e-005
0.000106094
0.000114572
0.000123083
0.000131474
0.000139537
0.000146995
0.000153493
0.000158593
0.000161784
0.000162508
0.000160204
0.00015436
0.000144554
0.000130456
0.000111834
8.86883e-005
6.14787e-005
3.14314e-005
-1.46879e-009
-3.14344e-005
-6.14817e-005
-8.86912e-005
-0.000111837
-0.000130459
-0.000144557
-0.000154363
-0.000160207
-0.000162511
-0.000161787
-0.000158595
-0.000153495
-0.000146998
-0.000139539
-0.000131475
-0.000123084
-0.000114573
-0.000106095
-9.77533e-005
-8.96175e-005
-8.17286e-005
-7.41067e-005
-6.67568e-005
-5.96729e-005
-5.28412e-005
-4.62429e-005
-3.98553e-005
-3.36536e-005
-2.76116e-005
-2.76116e-005
2.78123e-005
2.78123e-005
3.39053e-005
4.01963e-005
4.67199e-005
5.35101e-005
6.06007e-005
6.80232e-005
7.5806e-005
8.39718e-005
9.25337e-005
0.000101492
0.000110825
0.000120486
0.000130387
0.000140389
0.000150285
0.000159779
0.00016847
0.000175836
0.000181234
0.000183928
0.000183156
0.000178232
0.000168607
0.000153809
0.000133304
0.000106723
7.42068e-005
3.79125e-005
-1.21194e-009
-3.79152e-005
-7.42097e-005
-0.000106726
-0.000133307
-0.000153813
-0.000168611
-0.000178235
-0.00018316
-0.000183931
-0.000181237
-0.000175839
-0.000168472
-0.000159781
-0.000150287
-0.000140391
-0.000130388
-0.000120487
-0.000110826
-0.000101492
-9.25341e-005
-8.3972e-005
-7.58062e-005
-6.80232e-005
-6.06006e-005
-5.35101e-005
-4.67198e-005
-4.01962e-005
-3.39051e-005
-2.78121e-005
-2.78121e-005
2.78489e-005
2.78489e-005
3.39588e-005
4.03049e-005
4.69301e-005
5.38788e-005
6.11965e-005
6.89294e-005
7.71228e-005
8.5819e-005
9.50545e-005
0.000104855
0.000115229
0.00012616
0.000137591
0.000149411
0.000161434
0.000173364
0.000184771
0.000195047
0.000203388
0.000208813
0.000210261
0.000206804
0.000197833
0.000182869
0.000160852
0.000130694
9.07137e-005
4.60137e-005
-6.06781e-010
-4.60154e-005
-9.07164e-005
-0.000130696
-0.000160855
-0.000182873
-0.000197838
-0.000206808
-0.000210265
-0.000208817
-0.000203392
-0.00019505
-0.000184774
-0.000173367
-0.000161436
-0.000149413
-0.000137592
-0.00012616
-0.00011523
-0.000104855
-9.50547e-005
-8.58191e-005
-7.71228e-005
-6.89293e-005
-6.11964e-005
-5.38786e-005
-4.69299e-005
-4.03047e-005
-3.39585e-005
-2.78487e-005
-2.78487e-005
2.76904e-005
2.76904e-005
3.3776e-005
4.01344e-005
4.68169e-005
5.38784e-005
6.13772e-005
6.93752e-005
7.79367e-005
8.71271e-005
9.70102e-005
0.000107645
0.000119077
0.000131333
0.000144404
0.000158232
0.000172674
0.000187474
0.000202202
0.000216191
0.000228459
0.000237674
0.000242272
0.000240889
0.000233053
0.000218982
0.00019654
0.000164486
0.000111943
5.54298e-005
4.92858e-010
-5.54295e-005
-0.000111944
-0.000164489
-0.000196545
-0.000218989
-0.000233059
-0.000240895
-0.000242276
-0.000237678
-0.000228463
-0.000216195
-0.000202205
-0.000187476
-0.000172676
-0.000158233
-0.000144405
-0.000131333
-0.000119077
-0.000107645
-9.70102e-005
-8.7127e-005
-7.79365e-005
-6.93749e-005
-6.13769e-005
-5.38781e-005
-4.68166e-005
-4.01341e-005
-3.37757e-005
-2.76901e-005
-2.76901e-005
2.73071e-005
2.73071e-005
3.33204e-005
3.96397e-005
4.63247e-005
5.34406e-005
6.10587e-005
6.92575e-005
7.81217e-005
8.77423e-005
9.82149e-005
0.000109636
0.0001221
0.00013569
0.000150463
0.000166436
0.000183557
0.000201654
0.000220373
0.000239057
0.000256582
0.000271151
0.000280262
0.000281427
0.000274507
0.000263467
0.000241841
0.000218721
0.000137131
6.3754e-005
1.35889e-009
-6.37503e-005
-0.000137127
-0.000218723
-0.000241851
-0.000263477
-0.000274515
-0.000281434
-0.000280267
-0.000271155
-0.000256586
-0.000239061
-0.000220376
-0.000201657
-0.000183558
-0.000166438
-0.000150463
-0.00013569
-0.0001221
-0.000109636
-9.82146e-005
-8.7742e-005
-7.81213e-005
-6.9257e-005
-6.10583e-005
-5.34401e-005
-4.63243e-005
-3.96394e-005
-3.332e-005
-2.73068e-005
-2.73068e-005
2.66721e-005
2.66721e-005
3.25586e-005
3.87795e-005
4.54018e-005
5.25004e-005
6.01597e-005
6.84743e-005
7.75503e-005
8.75057e-005
9.84705e-005
0.000110585
0.000123999
0.000138862
0.00015532
0.000173495
0.000193462
0.000215213
0.000238578
0.000263083
0.000287659
0.000310084
0.000326198
0.000330051
0.000320079
0.000318532
0.000288643
0.000325937
0.000153277
6.19945e-005
-2.74021e-010
-6.1993e-005
-0.000153276
-0.000325948
-0.000288659
-0.000318539
-0.000320091
-0.00033006
-0.000326203
-0.000310089
-0.000287663
-0.000263086
-0.000238581
-0.000215215
-0.000193464
-0.000173495
-0.00015532
-0.000138862
-0.000123999
-0.000110585
-9.847e-005
-8.75051e-005
-7.75496e-005
-6.84736e-005
-6.0159e-005
-5.24998e-005
-4.54012e-005
-3.8779e-005
-3.25582e-005
-2.66717e-005
-2.66717e-005
2.57627e-005
2.57627e-005
3.14624e-005
3.75179e-005
4.40024e-005
5.09996e-005
5.86053e-005
6.69296e-005
7.60994e-005
8.62597e-005
9.75762e-005
0.000110236
0.000124448
0.000140441
0.000158461
0.00017876
0.000201585
0.000227159
0.000255642
0.000287036
0.000320886
0.000355328
0.000384394
0.000392485
0.000357341
0.000399889
0.000275913
0.000308755
0.000133787
5.316e-005
-9.55757e-009
-5.31848e-005
-0.000133827
-0.0003088
-0.000275955
-0.000399926
-0.000357368
-0.000392495
-0.0003844
-0.000355333
-0.00032089
-0.000287039
-0.000255644
-0.00022716
-0.000201585
-0.00017876
-0.000158461
-0.000140441
-0.000124447
-0.000110235
-9.75752e-005
-8.62588e-005
-7.60985e-005
-6.69288e-005
-5.86045e-005
-5.09989e-005
-4.40018e-005
-3.75173e-005
-3.14619e-005
-2.57623e-005
-2.57623e-005
2.45619e-005
2.45619e-005
3.00103e-005
3.58272e-005
4.20905e-005
4.88903e-005
5.63322e-005
6.45397e-005
7.3658e-005
8.38576e-005
9.53385e-005
0.000108334
0.000123115
0.000139994
0.000159323
0.000181498
0.000206958
0.000236195
0.000269795
0.000308532
0.00035352
0.000405945
0.000463555
0.000495367
0.0003265
0.000344634
0.000156256
3.95289e-006
5.55745e-005
3.73018e-005
-1.60233e-008
-3.73411e-005
-5.56252e-005
-3.99572e-006
-0.000156309
-0.00034472
-0.000326585
-0.000495429
-0.000463567
-0.000405945
-0.000353522
-0.000308534
-0.000269796
-0.000236196
-0.000206958
-0.000181497
-0.000159322
-0.000139993
-0.000123114
-0.000108333
-9.53372e-005
-8.38564e-005
-7.36568e-005
-6.45386e-005
-5.63312e-005
-4.88894e-005
-4.20897e-005
-3.58266e-005
-3.00097e-005
-2.45614e-005
-2.45614e-005
2.30597e-005
2.30597e-005
2.81896e-005
3.36903e-005
3.9642e-005
4.6139e-005
5.32934e-005
6.12389e-005
7.01352e-005
8.01743e-005
9.15861e-005
0.000104647
0.000119686
0.000137096
0.000157339
0.000180951
0.000208555
0.000240871
0.000278809
0.000323778
0.000378718
0.000451406
0.000565258
0.00045358
0.000214712
4.74941e-005
3.33012e-005
-0.00013626
-8.99273e-006
1.31942e-005
-7.94045e-009
-1.32074e-005
8.98938e-006
0.000136251
-3.33288e-005
-4.75427e-005
-0.000214799
-0.000453648
-0.000565285
-0.000451407
-0.000378718
-0.000323779
-0.00027881
-0.000240871
-0.000208554
-0.00018095
-0.000157337
-0.000137094
-0.000119684
-0.000104645
-9.15845e-005
-8.01728e-005
-7.01338e-005
-6.12376e-005
-5.32923e-005
-4.6138e-005
-3.96411e-005
-3.36896e-005
-2.8189e-005
-2.30592e-005
-2.30592e-005
2.1255e-005
2.1255e-005
2.59981e-005
3.11025e-005
3.66481e-005
4.27302e-005
4.94636e-005
5.69871e-005
6.54699e-005
7.51182e-005
8.6185e-005
9.89806e-005
0.000113886
0.000131366
0.000151984
0.000176415
0.000205438
0.000239924
0.000280793
0.000329056
0.000386204
0.000456017
0.000553312
0.000180289
0.000138438
-6.66397e-005
-2.81381e-006
-4.07365e-005
-1.44684e-005
-8.85108e-007
3.57455e-009
8.96184e-007
1.44871e-005
4.07461e-005
2.82245e-006
6.66498e-005
-0.00013846
-0.00018037
-0.000553491
-0.000456062
-0.000386208
-0.000329058
-0.000280794
-0.000239924
-0.000205437
-0.000176413
-0.000151982
-0.000131363
-0.000113883
-9.89784e-005
-8.6183e-005
-7.51164e-005
-6.54682e-005
-5.69857e-005
-4.94623e-005
-4.27291e-005
-3.66472e-005
-3.11017e-005
-2.59974e-005