# vtk DataFile Version 3.0
vtk output
ASCII
DATASET STRUCTURED_GRID
DIMENSIONS 61 71 1
POINTS 4331 double
0 0 0
0.05 0 0
0.1 0 0
0.15 0 0
0.2 0 0
0.25 0 0
0.3 0 0
0.35 0 0
0.4 0 0
0.45 0 0
0.5 0 0
0.55 0 0
0.6 0 0
0.65 0 0
0.7 0 0
0.75 0 0
0.8 0 0
0.85 0 0
0.9 0 0
0.95 0 0
1 0 0
1.05 0 0
1.1 0 0
1.15 0 0
1.2 0 0
1.25 0 0
1.3 0 0
1.35 0 0
1.4 0 0
1.45 0 0
1.5 0 0
1.55 0 0
1.6 0 0
1.65 0 0
1.7 0 0
1.75 0 0
1.8 0 0
1.85 0 0
1.9 0 0
1.95 0 0
2 0 0
2.05 0 0
2.1 0 0
2.15 0 0
2.2 0 0
2.25 0 0
2.3 0 0
2.35 0 0
2.4 0 0
2.45 0 0
2.5 0 0
2.55 0 0
2.6 0 0
2.65 0 0
2.7 0 0
2.75 0 0
2.8 0 0
2.85 0 0
2.9 0 0
2.95 0 0
3 0 0
0 0.05 0
0.05 0.05 0
0.1 0.05 0
0.15 0.05 0
0.2 0.05 0
0.25 0.05 0
0.3 0.05 0
0.35 0.05 0
0.4 0.05 0
0.45 0.05 0
0.5 0.05 0
0.55 0.05 0
0.6 0.05 0
0.65 0.05 0
0.7 0.05 0
0.75 0.05 0
0.8 0.05 0
0.85 0.05 0
0.9 0.05 0
0.95 0.05 0
1 0.05 0
1.05 0.05 0
1.1 0.05 0
1.15 0.05 0
1.2 0.05 0
1.25 0.05 0
1.3 0.05 0
1.35 0.05 0
1.4 0.05 0
1.45 0.05 0
1.5 0.05 0
1.55 0.05 0
1.6 0.05 0
1.65 0.05 0
1.7 0.05 0
1.75 0.05 0
1.8 0.05 0
1.85 0.05 0
1.9 0.05 0
1.95 0.05 0
2 0.05 0
2.05 0.05 0
2.1 0.05 0
2.15 0.05 0
2.2 0.05 0
2.25 0.05 0
2.3 0.05 0
2.35 0.05 0
2.4 0.05 0
2.45 0.05 0
2.5 0.05 0
2.55 0.05 0
2.6 0.05 0
2.65 0.05 0
2.7 0.05 0
2.75 0.05 0
2.8 0.05 0
2.85 0.05 0
2.9 0.05 0
2.95 0.05 0
3 0.05 0
0 0.1 0
0.05 0.1 0
0.1 0.1 0
0.15 0.1 0
0.2 0.1 0
0.25 0.1 0
0.3 0.1 0
0.35 0.1 0
0.4 0.1 0
0.45 0.1 0
0.5 0.1 0
0.55 0.1 0
0.6 0.1 0
0.65 0.1 0
0.7 0.1 0
0.75 0.1 0
0.8 0.1 0
0.85 0.1 0
0.9 0.1 0
0.95 0.1 0
1 0.1 0
1.05 0.1 0
1.1 0.1 0
1.15 0.1 0
1.2 0.1 0
1.25 0.1 0
1.3 0.1 0
1.35 0.1 0
1.4 0.1 0
1.45 0.1 0
1.5 0.1 0
1.55 0.1 0
1.6 0.1 0
1.65 0.1 0
1.7 0.1 0
1.75 0.1 0
1.8 0.1 0
1.85 0.1 0
1.9 0.1 0
1.95 0.1 0
2 0.1 0
2.05 0.1 0
2.1 0.1 0
2.15 0.1 0
2.2 0.1 0
2.25 0.1 0
2.3 0.1 0
2.35 0.1 0
2.4 0.1 0
2.45 0.1 0
2.5 0.1 0
2.55 0.1 0
2.6 0.1 0
2.65 0.1 0
2.7 0.1 0
2.75 0.1 0
2.8 0.1 0
2.85 0.1 0
2.9 0.1 0
2.95 0.1 0
3 0.1 0
0 0.15 0
0.05 0.15 0
0.1 0.15 0
0.15 0.15 0
0.2 0.15 0
0.25 0.15 0
0.3 0.15 0
0.35 0.15 0
0.4 0.15 0
0.45 0.15 0
0.5 0.15 0
0.55 0.15 0
0.6 0.15 0
0.65 0.15 0
0.7 0.15 0
0.75 0.15 0
0.8 0.15 0
0.85 0.15 0
0.9 0.15 0
0.95 0.15 0
1 0.15 0
1.05 0.15 0
1.1 0.15 0
1.15 0.15 0
1.2 0.15 0
1.25 0.15 0
1.3 0.15 0
1.35 0.15 0
1.4 0.15 0
1.45 0.15 0
1.5 0.15 0
1.55 0.15 0
1.6 0.15 0
1.65 0.15 0
1.7 0.15 0
1.75 0.15 0
1.8 0.15 0
1.85 0.15 0
1.9 0.15 0
1.95 0.15 0
2 0.15 0
2.05 0.15 0
2.1 0.15 0
2.15 0.15 0
2.2 0.15 0
2.25 0.15 0
2.3 0.15 0
2.35 0.15 0
2.4 0.15 0
2.45 0.15 0
2.5 0.15 0
2.55 0.15 0
2.6 0.15 0
2.65 0.15 0
2.7 0.15 0
2.75 0.15 0
2.8 0.15 0
2.85 0.15 0
2.9 0.15 0
2.95 0.15 0
3 0.15 0
0 0.2 0
0.05 0.2 0
0.1 0.2 0
0.15 0.2 0
0.2 0.2 0
0.25 0.2 0
0.3 0.2 0
0.35 0.2 0
0.4 0.2 0
0.45 0.2 0
0.5 0.2 0
0.55 0.2 0
0.6 0.2 0
0.65 0.2 0
0.7 0.2 0
0.75 0.2 0
0.8 0.2 0
0.85 0.2 0
0.9 0.2 0
0.95 0.2 0
1 0.2 0
1.05 0.2 0
1.1 0.2 0
1.15 0.2 0
1.2 0.2 0
1.25 0.2 0
1.3 0.2 0
1.35 0.2 0
1.4 0.2 0
1.45 0.2 0
1.5 0.2 0
1.55 0.2 0
1.6 0.2 0
1.65 0.2 0
1.7 0.2 0
1.75 0.2 0
1.8 0.2 0
1.85 0.2 0
1.9 0.2 0
1.95 0.2 0
2 0.2 0
2.05 0.2 0
2.1 0.2 0
2.15 0.2 0
2.2 0.2 0
2.25 0.2 0
2.3 0.2 0
2.35 0.2 0
2.4 0.2 0
2.45 0.2 0
2.5 0.2 0
2.55 0.2 0
2.6 0.2 0
2.65 0.2 0
2.7 0.2 0
2.75 0.2 0
2.8 0.2 0
2.85 0.2 0
2.9 0.2 0
2.95 0.2 0
3 0.2 0
0 0.25 0
0.05 0.25 0
0.1 0.25 0
0.15 0.25 0
0.2 0.25 0
0.25 0.25 0
0.3 0.25 0
0.35 0.25 0
0.4 0.25 0
0.45 0.25 0
0.5 0.25 0
0.55 0.25 0
0.6 0.25 0
0.65 0.25 0
0.7 0.25 0
0.75 0.25 0
0.8 0.25 0
0.85 0.25 0
0.9 0.25 0
0.95 0.25 0
1 0.25 0
1.05 0.25 0
1.1 0.25 0
1.15 0.25 0
1.2 0.25 0
1.25 0.25 0
1.3 0.25 0
1.35 0.25 0
1.4 0.25 0
1.45 0.25 0
1.5 0.25 0
1.55 0.25 0
1.6 0.25 0
1.65 0.25 0
1.7 0.25 0
1.75 0.25 0
1.8 0.25 0
1.85 0.25 0
1.9 0.25 0
1.95 0.25 0
2 0.25 0
2.05 0.25 0
2.1 0.25 0
2.15 0.25 0
2.2 0.25 0
2.25 0.25 0
2.3 0.25 0
2.35 0.25 0
2.4 0.25 0
2.45 0.25 0
2.5 0.25 0
2.55 0.25 0
2.6 0.25 0
2.65 0.25 0
2.7 0.25 0
2.75 0.25 0
2.8 0.25 0
2.85 0.25 0
2.9 0.25 0
2.95 0.25 0
3 0.25 0
0 0.3 0
0.05 0.3 0
0.1 0.3 0
0.15 0.3 0
0.2 0.3 0
0.25 0.3 0
0.3 0.3 0
0.35 0.3 0
0.4 0.3 0
0.45 0.3 0
0.5 0.3 0
0.55 0.3 0
0.6 0.3 0
0.65 0.3 0
0.7 0.3 0
0.75 0.3 0
0.8 0.3 0
0.85 0.3 0
0.9 0.3 0
0.95 0.3 0
1 0.3 0
1.05 0.3 0
1.1 0.3 0
1.15 0.3 0
1.2 0.3 0
1.25 0.3 0
1.3 0.3 0
1.35 0.3 0
1.4 0.3 0
1.45 0.3 0
1.5 0.3 0
1.55 0.3 0
1.6 0.3 0
1.65 0.3 0
1.7 0.3 0
1.75 0.3 0
1.8 0.3 0
1.85 0.3 0
1.9 0.3 0
1.95 0.3 0
2 0.3 0
2.05 0.3 0
2.1 0.3 0
2.15 0.3 0
2.2 0.3 0
2.25 0.3 0
2.3 0.3 0
2.35 0.3 0
2.4 0.3 0
2.45 0.3 0
2.5 0.3 0
2.55 0.3 0
2.6 0.3 0
2.65 0.3 0
2.7 0.3 0
2.75 0.3 0
2.8 0.3 0
2.85 0.3 0
2.9 0.3 0
2.95 0.3 0
3 0.3 0
0 0.35 0
0.05 0.35 0
0.1 0.35 0
0.15 0.35 0
0.2 0.35 0
0.25 0.35 0
0.3 0.35 0
0.35 0.35 0
0.4 0.35 0
0.45 0.35 0
0.5 0.35 0
0.55 0.35 0
0.6 0.35 0
0.65 0.35 0
0.7 0.35 0
0.75 0.35 0
0.8 0.35 0
0.85 0.35 0
0.9 0.35 0
0.95 0.35 0
1 0.35 0
1.05 0.35 0
1.1 0.35 0
1.15 0.35 0
1.2 0.35 0
1.25 0.35 0
1.3 0.35 0
1.35 0.35 0
1.4 0.35 0
1.45 0.35 0
1.5 0.35 0
1.55 0.35 0
1.6 0.35 0
1.65 0.35 0
1.7 0.35 0
1.75 0.35 0
1.8 0.35 0
1.85 0.35 0
1.9 0.35 0
1.95 0.35 0
2 0.35 0
2.05 0.35 0
2.1 0.35 0
2.15 0.35 0
2.2 0.35 0
2.25 0.35 0
2.3 0.35 0
2.35 0.35 0
2.4 0.35 0
2.45 0.35 0
2.5 0.35 0
2.55 0.35 0
2.6 0.35 0
2.65 0.35 0
2.7 0.35 0
2.75 0.35 0
2.8 0.35 0
2.85 0.35 0
2.9 0.35 0
2.95 0.35 0
3 0.35 0
0 0.4 0
0.05 0.4 0
0.1 0.4 0
0.15 0.4 0
0.2 0.4 0
0.25 0.4 0
0.3 0.4 0
0.35 0.4 0
0.4 0.4 0
0.45 0.4 0
0.5 0.4 0
0.55 0.4 0
0.6 0.4 0
0.65 0.4 0
0.7 0.4 0
0.75 0.4 0
0.8 0.4 0
0.85 0.4 0
0.9 0.4 0
0.95 0.4 0
1 0.4 0
1.05 0.4 0
1.1 0.4 0
1.15 0.4 0
1.2 0.4 0
1.25 0.4 0
1.3 0.4 0
1.35 0.4 0
1.4 0.4 0
1.45 0.4 0
1.5 0.4 0
1.55 0.4 0
1.6 0.4 0
1.65 0.4 0
1.7 0.4 0
1.75 0.4 0
1.8 0.4 0
1.85 0.4 0
1.9 0.4 0
1.95 0.4 0
2 0.4 0
2.05 0.4 0
2.1 0.4 0
2.15 0.4 0
2.2 0.4 0
2.25 0.4 0
2.3 0.4 0
2.35 0.4 0
2.4 0.4 0
2.45 0.4 0
2.5 0.4 0
2.55 0.4 0
2.6 0.4 0
2.65 0.4 0
2.7 0.4 0
2.75 0.4 0
2.8 0.4 0
2.85 0.4 0
2.9 0.4 0
2.95 0.4 0
3 0.4 0
0 0.45 0
0.05 0.45 0
0.1 0.45 0
0.15 0.45 0
0.2 0.45 0
0.25 0.45 0
0.3 0.45 0
0.35 0.45 0
0.4 0.45 0
0.45 0.45 0
0.5 0.45 0
0.55 0.45 0
0.6 0.45 0
0.65 0.45 0
0.7 0.45 0
0.75 0.45 0
0.8 0.45 0
0.85 0.45 0
0.9 0.45 0
0.95 0.45 0
1 0.45 0
1.05 0.45 0
1.1 0.45 0
1.15 0.45 0
1.2 0.45 0
1.25 0.45 0
1.3 0.45 0
1.35 0.45 0
1.4 0.45 0
1.45 0.45 0
1.5 0.45 0
1.55 0.45 0
1.6 0.45 0
1.65 0.45 0
1.7 0.45 0
1.75 0.45 0
1.8 0.45 0
1.85 0.45 0
1.9 0.45 0
1.95 0.45 0
2 0.45 0
2.05 0.45 0
2.1 0.45 0
2.15 0.45 0
2.2 0.45 0
2.25 0.45 0
2.3 0.45 0
2.35 0.45 0
2.4 0.45 0
2.45 0.45 0
2.5 0.45 0
2.55 0.45 0
2.6 0.45 0
2.65 0.45 0
2.7 0.45 0
2.75 0.45 0
2.8 0.45 0
2.85 0.45 0
2.9 0.45 0
2.95 0.45 0
3 0.45 0
0 0.5 0
0.05 0.5 0
0.1 0.5 0
0.15 0.5 0
0.2 0.5 0
0.25 0.5 0
0.3 0.5 0
0.35 0.5 0
0.4 0.5 0
0.45 0.5 0
0.5 0.5 0
0.55 0.5 0
0.6 0.5 0
0.65 0.5 0
0.7 0.5 0
0.75 0.5 0
0.8 0.5 0
0.85 0.5 0
0.9 0.5 0
0.95 0.5 0
1 0.5 0
1.05 0.5 0
1.1 0.5 0
1.15 0.5 0
1.2 0.5 0
1.25 0.5 0
1.3 0.5 0
1.35 0.5 0
1.4 0.5 0
1.45 0.5 0
1.5 0.5 0
1.55 0.5 0
1.6 0.5 0
1.65 0.5 0
1.7 0.5 0
1.75 0.5 0
1.8 0.5 0
1.85 0.5 0
1.9 0.5 0
1.95 0.5 0
2 0.5 0
2.05 0.5 0
2.1 0.5 0
2.15 0.5 0
2.2 0.5 0
2.25 0.5 0
2.3 0.5 0
2.35 0.5 0
2.4 0.5 0
2.45 0.5 0
2.5 0.5 0
2.55 0.5 0
2.6 0.5 0
2.65 0.5 0
2.7 0.5 0
2.75 0.5 0
2.8 0.5 0
2.85 0.5 0
2.9 0.5 0
2.95 0.5 0
3 0.5 0
0 0.55 0
0.05 0.55 0
0.1 0.55 0
0.15 0.55 0
0.2 0.55 0
0.25 0.55 0
0.3 0.55 0
0.35 0.55 0
0.4 0.55 0
0.45 0.55 0
0.5 0.55 0
0.55 0.55 0
0.6 0.55 0
0.65 0.55 0
0.7 0.55 0
0.75 0.55 0
0.8 0.55 0
0.85 0.55 0
0.9 0.55 0
0.95 0.55 0
1 0.55 0
1.05 0.55 0
1.1 0.55 0
1.15 0.55 0
1.2 0.55 0
1.25 0.55 0
1.3 0.55 0
1.35 0.55 0
1.4 0.55 0
1.45 0.55 0
1.5 0.55 0
1.55 0.55 0
1.6 0.55 0
1.65 0.55 0
1.7 0.55 0
1.75 0.55 0
1.8 0.55 0
1.85 0.55 0
1.9 0.55 0
1.95 0.55 0
2 0.55 0
2.05 0.55 0
2.1 0.55 0
2.15 0.55 0
2.2 0.55 0
2.25 0.55 0
2.3 0.55 0
2.35 0.55 0
2.4 0.55 0
2.45 0.55 0
2.5 0.55 0
2.55 0.55 0
2.6 0.55 0
2.65 0.55 0
2.7 0.55 0
2.75 0.55 0
2.8 0.55 0
2.85 0.55 0
2.9 0.55 0
2.95 0.55 0
3 0.55 0
0 0.6 0
0.05 0.6 0
0.1 0.6 0
0.15 0.6 0
0.2 0.6 0
0.25 0.6 0
0.3 0.6 0
0.35 0.6 0
0.4 0.6 0
0.45 0.6 0
0.5 0.6 0
0.55 0.6 0
0.6 0.6 0
0.65 0.6 0
0.7 0.6 0
0.75 0.6 0
0.8 0.6 0
0.85 0.6 0
0.9 0.6 0
0.95 0.6 0
1 0.6 0
1.05 0.6 0
1.1 0.6 0
1.15 0.6 0
1.2 0.6 0
1.25 0.6 0
1.3 0.6 0
1.35 0.6 0
1.4 0.6 0
1.45 0.6 0
1.5 0.6 0
1.55 0.6 0
1.6 0.6 0
1.65 0.6 0
1.7 0.6 0
1.75 0.6 0
1.8 0.6 0
1.85 0.6 0
1.9 0.6 0
1.95 0.6 0
2 0.6 0
2.05 0.6 0
2.1 0.6 0
2.15 0.6 0
2.2 0.6 0
2.25 0.6 0
2.3 0.6 0
2.35 0.6 0
2.4 0.6 0
2.45 0.6 0
2.5 0.6 0
2.55 0.6 0
2.6 0.6 0
2.65 0.6 0
2.7 0.6 0
2.75 0.6 0
2.8 0.6 0
2.85 0.6 0
2.9 0.6 0
2.95 0.6 0
3 0.6 0
0 0.65 0
0.05 0.65 0
0.1 0.65 0
0.15 0.65 0
0.2 0.65 0
0.25 0.65 0
0.3 0.65 0
0.35 0.65 0
0.4 0.65 0
0.45 0.65 0
0.5 0.65 0
0.55 0.65 0
0.6 0.65 0
0.65 0.65 0
0.7 0.65 0
0.75 0.65 0
0.8 0.65 0
0.85 0.65 0
0.9 0.65 0
0.95 0.65 0
1 0.65 0
1.05 0.65 0
1.1 0.65 0
1.15 0.65 0
1.2 0.65 0
1.25 0.65 0
1.3 0.65 0
1.35 0.65 0
1.4 0.65 0
1.45 0.65 0
1.5 0.65 0
1.55 0.65 0
1.6 0.65 0
1.65 0.65 0
1.7 0.65 0
1.75 0.65 0
1.8 0.65 0
1.85 0.65 0
1.9 0.65 0
1.95 0.65 0
2 0.65 0
2.05 0.65 0
2.1 0.65 0
2.15 0.65 0
2.2 0.65 0
2.25 0.65 0
2.3 0.65 0
2.35 0.65 0
2.4 0.65 0
2.45 0.65 0
2.5 0.65 0
[...]
POINT_DATA 4331
SCALARS u double
LOOKUP_TABLE default
0
0
0
0
0
0
0
0
0
0
0
0
0
0
0
0
0
0
0
0
0
0
0
0
0
0
0
0
0
0
0
0
0
0
0
0
0
0
0
0
0
0
0
0
0
0
0
0
0
0
0
0
0
0
0
0
0
0
0
0
0
8.96561e-006
8.96561e-006
1.19938e-005
1.49628e-005
1.78585e-005
2.0665e-005
2.33644e-005
2.5937e-005
2.83611e-005
3.06131e-005
3.26674e-005
3.44967e-005
3.60722e-005
3.73642e-005
3.83422e-005
3.89762e-005
3.92371e-005
3.90981e-005
3.85357e-005
3.75312e-005
3.60717e-005
3.41517e-005
3.17745e-005
2.89528e-005
2.57098e-005
2.20793e-005
1.81061e-005
1.38446e-005
9.35843e-006
4.71816e-006
-4.5854e-010
-4.71908e-006
-9.35934e-006
-1.38455e-005
-1.8107e-005
-2.20802e-005
-2.57106e-005
-2.89536e-005
-3.17753e-005
-3.41525e-005
-3.60724e-005
-3.75319e-005
-3.85364e-005
-3.90988e-005
-3.92377e-005
-3.89768e-005
-3.83428e-005
-3.73647e-005
-3.60727e-005
-3.44971e-005
-3.26678e-005
-3.06135e-005
-2.83614e-005
-2.59373e-005
-2.33647e-005
-2.06652e-005
-1.78587e-005
-1.4963e-005
-1.19939e-005
-8.96567e-006
-8.96567e-006
9.08785e-006
9.08785e-006
1.21533e-005
1.51651e-005
1.81067e-005
2.09614e-005
2.37113e-005
2.63363e-005
2.88147e-005
3.11226e-005
3.32338e-005
3.51206e-005
3.67532e-005
3.81009e-005
3.91319e-005
3.98145e-005
4.0118e-005
4.00135e-005
3.94755e-005
3.8483e-005
3.70212e-005
3.50826e-005
3.2669e-005
2.97922e-005
2.64749e-005
2.27515e-005
1.86678e-005
1.42806e-005
9.65632e-006
4.86934e-006
-4.59303e-010
-4.87025e-006
-9.65723e-006
-1.42815e-005
-1.86687e-005
-2.27523e-005
-2.64757e-005
-2.9793e-005
-3.26698e-005
-3.50834e-005
-3.70219e-005
-3.84837e-005
-3.94762e-005
-4.00142e-005
-4.01186e-005
-3.98151e-005
-3.91324e-005
-3.81014e-005
-3.67537e-005
-3.5121e-005
-3.32342e-005
-3.11229e-005
-2.88151e-005
-2.63366e-005
-2.37115e-005
-2.09617e-005
-1.81068e-005
-1.51652e-005
-1.21534e-005
-9.08791e-006
-9.08791e-006
9.19914e-006
9.19914e-006
1.22981e-005
1.53462e-005
1.83282e-005
2.12277e-005
2.4027e-005
2.67065e-005
2.92443e-005
3.16164e-005
3.37964e-005
3.57558e-005
3.74639e-005
3.88885e-005
3.99961e-005
4.07527e-005
4.11249e-005
4.10808e-005
4.05916e-005
3.96327e-005
3.8186e-005
3.62408e-005
3.3796e-005
3.08615e-005
2.7459e-005
2.36231e-005
1.94011e-005
1.48527e-005
1.00487e-005
5.06892e-006
-4.63564e-010
-5.06985e-006
-1.00496e-005
-1.48536e-005
-1.9402e-005
-2.3624e-005
-2.74599e-005
-3.08624e-005
-3.37969e-005
-3.62416e-005
-3.81867e-005
-3.96334e-005
-4.05923e-005
-4.10815e-005
-4.11255e-005
-4.07533e-005
-3.99966e-005
-3.8889e-005
-3.74644e-005
-3.57562e-005
-3.37968e-005
-3.16167e-005
-2.92446e-005
-2.67068e-005
-2.40273e-005
-2.12279e-005
-1.83284e-005
-1.53464e-005
-1.22982e-005
-9.19919e-006
-9.19919e-006
9.34677e-006
9.34677e-006
1.24937e-005
1.55933e-005
1.86318e-005
2.15938e-005
2.44622e-005
2.72178e-005
2.9839e-005
3.23016e-005
3.45789e-005
3.66415e-005
3.84574e-005
3.99924e-005
4.12104e-005
4.20744e-005
4.25471e-005
4.25924e-005
4.21763e-005
4.12695e-005
3.98484e-005
3.78977e-005
3.54121e-005
3.23982e-005
2.88761e-005
2.48803e-005
2.04603e-005
1.56801e-005
1.06167e-005
5.35798e-006
-4.69573e-010
-5.35891e-006
-1.06177e-005
-1.56811e-005
-2.04612e-005
-2.48812e-005
-2.88769e-005
-3.2399e-005
-3.54129e-005
-3.78985e-005
-3.98492e-005
-4.12702e-005
-4.2177e-005
-4.2593e-005
-4.25478e-005
-4.2075e-005
-4.1211e-005
-3.99929e-005
-3.84579e-005
-3.6642e-005
-3.45793e-005
-3.2302e-005
-2.98393e-005
-2.72181e-005
-2.44625e-005
-2.1594e-005
-1.86319e-005
-1.55934e-005
-1.24938e-005
-9.34683e-006
-9.34683e-006
9.52928e-006
9.52928e-006
1.27365e-005
1.59015e-005
1.90119e-005
2.20535e-005
2.50103e-005
2.78636e-005
3.05923e-005
3.31722e-005
3.55763e-005
3.77741e-005
3.97319e-005
4.14133e-005
4.27789e-005
4.37876e-005
4.43971e-005
4.45653e-005
4.4252e-005
4.34206e-005
4.20406e-005
4.00897e-005
3.75566e-005
3.44432e-005
3.07668e-005
2.65618e-005
2.18799e-005
1.67909e-005
1.13801e-005
5.74675e-006
-4.77351e-010
-5.7477e-006
-1.13811e-005
-1.67918e-005
-2.18809e-005
-2.65627e-005
-3.07677e-005
-3.4444e-005
-3.75574e-005
-4.00905e-005
-4.20414e-005
-4.34214e-005
-4.42527e-005
-4.4566e-005
-4.43977e-005
-4.37882e-005
-4.27795e-005
-4.14138e-005
-3.97324e-005
-3.77745e-005
-3.55767e-005
-3.31726e-005
-3.05926e-005
-2.78639e-005
-2.50105e-005
-2.20538e-005
-1.90121e-005
-1.59016e-005
-1.27366e-005
-9.52934e-006
-9.52934e-006
9.74317e-006
9.74317e-006
1.30215e-005
1.62643e-005
1.94608e-005
2.25983e-005
2.56619e-005
2.86341e-005
3.14944e-005
3.42189e-005
3.67801e-005
3.91466e-005
4.12831e-005
4.31501e-005
4.47045e-005
4.59001e-005
4.66885e-005
4.702e-005
4.6846e-005
4.61206e-005
4.48039e-005
4.28641e-005
4.02815e-005
3.70513e-005
3.31865e-005
2.87201e-005
2.37069e-005
1.82233e-005
1.23662e-005
6.24939e-006
-4.86936e-010
-6.25036e-006
-1.23671e-005
-1.82243e-005
-2.37078e-005
-2.8721e-005
-3.31873e-005
-3.70522e-005
-4.02824e-005
-4.28649e-005
-4.48046e-005
-4.61214e-005
-4.68467e-005
-4.70207e-005
-4.66891e-005
-4.59008e-005
-4.47051e-005
-4.31506e-005
-4.12836e-005
-3.91471e-005
-3.67805e-005
-3.42192e-005
-3.14947e-005
-2.86344e-005
-2.56621e-005
-2.25985e-005
-1.9461e-005
-1.62645e-005
-1.30216e-005
-9.74323e-006
-9.74323e-006
9.9835e-006
9.9835e-006
1.33422e-005
1.66735e-005
1.99687e-005
2.3217e-005
2.6405e-005
2.95166e-005
3.25323e-005
3.54289e-005
3.81787e-005
4.07495e-005
4.31039e-005
4.51996e-005
4.69891e-005
4.84202e-005
4.94368e-005
4.99804e-005
4.99914e-005
4.94122e-005
4.81903e-005
4.62814e-005
4.36542e-005
4.02943e-005
3.62077e-005
3.14253e-005
2.60043e-005
2.00295e-005
1.36119e-005
6.88517e-006
-4.98358e-010
-6.88616e-006
-1.36129e-005
-2.00305e-005
-2.60053e-005
-3.14263e-005
-3.62086e-005
-4.02951e-005
-4.36551e-005
-4.62822e-005
-4.81911e-005
-4.9413e-005
-4.99921e-005
-4.99811e-005
-4.94375e-005
-4.84208e-005
-4.69897e-005
-4.52001e-005
-4.31044e-005
-4.07499e-005
-3.81791e-005
-3.54293e-005
-3.25327e-005
-2.95169e-005
-2.64052e-005
-2.32172e-005
-1.99689e-005
-1.66737e-005
-1.33423e-005
-9.98356e-006
-9.98356e-006
1.02441e-005
1.02441e-005
1.36902e-005
1.71189e-005
2.05237e-005
2.38959e-005
2.72245e-005
3.04951e-005
3.36896e-005
3.67859e-005
3.97565e-005
4.25687e-005
4.51835e-005
4.75554e-005
4.96322e-005
5.13548e-005
5.26585e-005
5.34735e-005
5.37272e-005
5.33469e-005
5.22638e-005
5.04172e-005
4.776e-005
4.42639e-005
3.99251e-005
3.47693e-005
2.88557e-005
2.22785e-005
1.51668e-005
7.67992e-006
-5.1161e-010
-7.68094e-006
-1.51678e-005
-2.22795e-005
-2.88566e-005
-3.47703e-005
-3.9926e-005
-4.42648e-005
-4.77609e-005
-5.04181e-005
-5.22646e-005
-5.33477e-005
-5.37279e-005
-5.34742e-005
-5.26592e-005
-5.13555e-005
-4.96328e-005
-4.7556e-005
-4.5184e-005
-4.25692e-005
-3.97569e-005
-3.67862e-005
-3.36899e-005
-3.04953e-005
-2.72247e-005
-2.38961e-005
-2.05239e-005
-1.71191e-005
-1.36903e-005
-1.02441e-005
-1.02441e-005
1.05174e-005
1.05174e-005
1.40558e-005
1.75883e-005
2.11112e-005
2.46187e-005
2.81021e-005
3.15496e-005
3.49453e-005
3.82685e-005
4.14929e-005
4.45855e-005
4.75063e-005
5.02067e-005
5.26295e-005
5.47087e-005
5.63692e-005
5.75281e-005
5.8097e-005
5.79846e-005
5.7101e-005
5.53639e-005
5.27048e-005
4.90763e-005
4.44595e-005
3.88714e-005
3.23706e-005
2.50621e-005
1.7097e-005
8.66826e-006
-5.26611e-010
-8.6693e-006
-1.70981e-005
-2.50631e-005
-3.23716e-005
-3.88724e-005
-4.44605e-005
-4.90772e-005
-5.27057e-005
-5.53648e-005
-5.71018e-005
-5.79854e-005
-5.80978e-005
-5.75289e-005
-5.63699e-005
-5.47093e-005
-5.26301e-005
-5.02072e-005
-4.75068e-005
-4.4586e-005
-4.14933e-005
-3.82689e-005
-3.49457e-005
-3.15499e-005
-2.81023e-005
-2.46189e-005
-2.11114e-005
-1.75885e-005
-1.40559e-005
-1.05174e-005
-1.05174e-005
1.07947e-005
1.07947e-005
1.44274e-005
1.80674e-005
2.17143e-005
2.53655e-005
2.90157e-005
3.26561e-005
3.62737e-005
3.98502e-005
4.33611e-005
4.67745e-005
5.00495e-005
5.31356e-005
5.59708e-005
5.84814e-005
6.05815e-005
6.21731e-005
6.31486e-005
6.33935e-005
6.27919e-005
6.12329e-005
5.86193e-005
5.48772e-005
4.99656e-005
4.38862e-005
3.66936e-005
2.85023e-005
1.9491e-005
9.89664e-006
-5.43108e-010
-9.89772e-006
-1.94921e-005
-2.85034e-005
-3.66946e-005
-4.38872e-005
-4.99665e-005
-5.48782e-005
-5.86202e-005
-6.12338e-005
-6.27928e-005
-6.33944e-005
-6.31494e-005
-6.21738e-005
-6.05822e-005
-5.84821e-005
-5.59714e-005
-5.31361e-005
-5.005e-005
-4.67749e-005
-4.33615e-005
-3.98505e-005
-3.6274e-005
-3.26564e-005
-2.90159e-005
-2.53657e-005
-2.17144e-005
-1.80675e-005
-1.44275e-005
-1.07947e-005
-1.07947e-005
1.10659e-005
1.10659e-005
1.47916e-005
1.85396e-005
2.23131e-005
2.61134e-005
2.99392e-005
3.37855e-005
3.76432e-005
4.14976e-005
4.53271e-005
4.91018e-005
5.27819e-005
5.63155e-005
5.96369e-005
6.2665e-005
6.53024e-005
6.74344e-005
6.89309e-005
6.96493e-005
6.94404e-005
6.81566e-005
6.56626e-005
6.1848e-005
5.66395e-005
5.00146e-005
4.20152e-005
3.27628e-005
2.24683e-005
1.14279e-005
-5.60481e-010
-1.1429e-005
-2.24694e-005
-3.27639e-005
-4.20162e-005
-5.00156e-005
-5.66405e-005
-6.18489e-005
-6.56635e-005
-6.81575e-005
-6.94413e-005
-6.96502e-005
-6.89317e-005
-6.74352e-005
-6.53031e-005
-6.26657e-005
-5.96375e-005
-5.6316e-005
-5.27824e-005
-4.91023e-005
-4.53275e-005
-4.14979e-005
-3.76435e-005
-3.37857e-005
-2.99394e-005
-2.61136e-005
-2.23132e-005
-1.85397e-005
-1.47917e-005
-1.1066e-005
-1.1066e-005
1.13199e-005
1.13199e-005
1.51337e-005
1.89863e-005
2.28851e-005
2.6836e-005
3.08421e-005
3.49036e-005
3.90162e-005
4.31699e-005
4.73479e-005
5.15241e-005
5.56611e-005
5.97077e-005
6.35963e-005
6.72397e-005
7.05289e-005
7.33314e-005
7.54915e-005
7.68328e-005
7.71642e-005
7.62906e-005
7.40267e-005
7.02127e-005
6.47302e-005
5.75177e-005
4.859e-005
3.80656e-005
2.61915e-005
1.33471e-005
-5.77314e-010
-1.33483e-005
-2.61926e-005
-3.80667e-005
-4.85911e-005
-5.75187e-005
-6.47312e-005
-7.02137e-005
-7.40277e-005
-7.62916e-005
-7.71652e-005
-7.68337e-005
-7.54924e-005
-7.33322e-005
-7.05296e-005
-6.72404e-005
-6.3597e-005
-5.97083e-005
-5.56616e-005
-5.15245e-005
-4.73483e-005
-4.31703e-005
-3.90165e-005
-3.49039e-005
-3.08423e-005
-2.68361e-005
-2.28852e-005
-1.89864e-005
-1.51338e-005
-1.13199e-005
-1.13199e-005
1.15441e-005
1.15441e-005
1.54372e-005
1.93867e-005
2.34051e-005
2.75033e-005
3.16899e-005
3.59708e-005
4.03481e-005
4.48182e-005
4.93708e-005
5.39856e-005
5.86307e-005
6.32583e-005
6.78013e-005
7.21688e-005
7.62422e-005
7.98711e-005
8.28714e-005
8.50264e-005
8.60933e-005
8.58154e-005
8.39413e-005
8.02463e-005
7.45513e-005
6.67361e-005
5.67619e-005
4.47182e-005
3.08851e-005
1.57699e-005
-5.9045e-010
-1.5771e-005
-3.08862e-005
-4.47193e-005
-5.67629e-005
-6.67372e-005
-7.45523e-005
-8.02474e-005
-8.39423e-005
-8.58164e-005
-8.60943e-005
-8.50274e-005
-8.28723e-005
-7.9872e-005
-7.6243e-005
-7.21696e-005
-6.78019e-005
-6.32589e-005
-5.86312e-005
-5.39861e-005
-4.93711e-005
-4.48186e-005
-4.03483e-005
-3.5971e-005
-3.169e-005
-2.75034e-005
-2.34053e-005
-1.93868e-005
-1.54372e-005
-1.15442e-005
-1.15442e-005
1.17252e-005
1.17252e-005
1.56841e-005
1.97184e-005
2.38456e-005
2.80822e-005
3.24433e-005
3.69418e-005
4.15872e-005
4.63844e-005
5.13314e-005
5.64172e-005
6.16181e-005
6.68938e-005
7.21819e-005
7.73924e-005
8.24004e-005
8.70397e-005
9.10967e-005
9.43085e-005
9.63674e-005
9.69366e-005
9.5677e-005
9.22804e-005
8.64927e-005
7.8114e-005
6.70034e-005
5.31605e-005
3.6861e-005
1.8848e-005
-5.92991e-010
-1.88491e-005
-3.68622e-005
-5.31616e-005
-6.70045e-005
-7.8115e-005
-8.64938e-005
-9.22816e-005
-9.56781e-005
-9.69377e-005
-9.63685e-005
-9.43095e-005
-9.10977e-005
-8.70406e-005
-8.24013e-005
-7.73931e-005
-7.21825e-005
-6.68943e-005
-6.16186e-005
-5.64176e-005
-5.13317e-005
-4.63846e-005
-4.15874e-005
-3.6942e-005
-3.24435e-005
-2.80823e-005
-2.38457e-005
-1.97185e-005
-1.56842e-005
-1.17253e-005
-1.17253e-005
1.1849e-005
1.1849e-005
1.58556e-005
1.99572e-005
2.41766e-005
2.85367e-005
3.30595e-005
3.7766e-005
4.26747e-005
4.78007e-005
5.31534e-005
5.87338e-005
6.4531e-005
7.05169e-005
7.66404e-005
8.28186e-005
8.89276e-005
9.47909e-005
0.000100168
0.000104744
0.000108132
0.000109887
0.00010955
0.000106706
0.000101026
9.2224e-005
7.99777e-005
6.40599e-005
4.45506e-005
2.27617e-005
-5.7085e-010
-2.27629e-005
-4.45518e-005
-6.40609e-005
-7.99788e-005
-9.22251e-005
-0.000101027
-0.000106707
-0.000109551
-0.000109888
-0.000108133
-0.000104745
-0.000100169
-9.47919e-005
-8.89285e-005
-8.28194e-005
-7.6641e-005
-7.05175e-005
-6.45315e-005
-5.87342e-005
-5.31537e-005
-4.7801e-005
-4.26749e-005
-3.77662e-005
-3.30597e-005
-2.85368e-005
-2.41767e-005
-1.99572e-005
-1.58557e-005
-1.18491e-005
-1.18491e-005
1.19009e-005
1.19009e-005
1.59323e-005
2.00781e-005
2.4367e-005
2.88285e-005
3.34922e-005
3.8388e-005
4.35451e-005
4.89906e-005
5.47479e-005
6.08339e-005
6.72553e-005
7.40029e-005
8.10444e-005
8.83143e-005
9.5701e-005
0.000103029
0.000110039
0.000116368
0.000121529
0.00012493
0.000125931
0.000123969
0.00011868
0.000109779
9.6624e-005
7.85509e-005
5.45204e-005
2.76491e-005
-5.01319e-010
-2.76501e-005
-5.45215e-005
-7.8552e-005
-9.66251e-005
-0.00010978
-0.000118681
-0.00012397
-0.000125932
-0.000124932
-0.00012153
-0.000116369
-0.000110041
-0.00010303
-9.57019e-005
-8.83151e-005
-8.1045e-005
-7.40034e-005
-6.72558e-005
-6.08343e-005
-5.47481e-005
-4.89908e-005
-4.35452e-005
-3.83882e-005
-3.34923e-005
-2.88286e-005
-2.43671e-005
-2.00781e-005
-1.59323e-005
-1.1901e-005
-1.1901e-005
1.18663e-005
1.18663e-005
1.58944e-005
2.00559e-005
2.43851e-005
2.89181e-005
3.36929e-005
3.8749e-005
4.41272e-005
4.98687e-005
5.60137e-005
6.25989e-005
6.96537e-005
7.71952e-005
8.52201e-005
9.36937e-005
0.000102533
0.000111585
0.000120594
0.000129158
0.000136687
0.000142375
0.000145274
0.000144558
0.000139947
0.000131589
0.000118189
9.90001e-005
6.73313e-005
3.3315e-005
-3.82038e-010
-3.33158e-005
-6.73323e-005
-9.9001e-005
-0.00011819
-0.00013159
-0.000139949
-0.00014456
-0.000145276
-0.000142376
-0.000136688
-0.00012916
-0.000120595
-0.000111586
-0.000102534
-9.36944e-005
-8.52208e-005
-7.71957e-005
-6.96541e-005
-6.25992e-005
-5.60139e-005
-4.98689e-005
-4.41273e-005
-3.8749e-005
-3.36929e-005
-2.89181e-005
-2.43851e-005
-2.00559e-005
-1.58944e-005
-1.18664e-005
-1.18664e-005
1.17313e-005
1.17313e-005
1.57232e-005
1.98659e-005
2.41993e-005
2.87661e-005
3.36124e-005
3.87879e-005
4.4346e-005
5.03435e-005
5.68397e-005
6.38944e-005
7.15656e-005
7.99043e-005
8.89477e-005
9.87074e-005
0.000109153
0.000120185
0.000131593
0.000142986
0.000153686
0.000162608
0.000168234
0.000169044
0.000164961
0.000158441
0.000145543
0.000131918
8.24843e-005
3.82762e-005
-4.37336e-010
-3.82765e-005
-8.24842e-005
-0.000131919
-0.000145545
-0.000158443
-0.000164963
-0.000169046
-0.000168235
-0.00016261
-0.000153687
-0.000142987
-0.000131595
-0.000120187
-0.000109154
-9.87081e-005
-8.89483e-005
-7.99048e-005
-7.15659e-005
-6.38946e-005
-5.68398e-005
-5.03436e-005
-4.43461e-005
-3.87879e-005
-3.36123e-005
-2.87661e-005
-2.41993e-005
-1.98659e-005
-1.57232e-005
-1.17313e-005
-1.17313e-005
1.14828e-005
1.14828e-005
1.54012e-005
1.94854e-005
2.37802e-005
2.83346e-005
3.32027e-005
3.84443e-005
4.41256e-005
5.03199e-005
5.71072e-005
6.45736e-005
7.28102e-005
8.19092e-005
9.19591e-005
0.000103035
0.000115187
0.00012841
0.000142609
0.000157506
0.000172462
0.00018614
0.000196009
0.000198424
0.000192412
0.000191674
0.000173615
0.000198455
9.18374e-005
3.70069e-005
-1.4775e-009
-3.70096e-005
-9.18406e-005
-0.000198459
-0.000173619
-0.000191675
-0.000192415
-0.000198427
-0.000196011
-0.000186142
-0.000172464
-0.000157507
-0.000142611
-0.000128411
-0.000115188
-0.000103036
-9.19596e-005
-8.19096e-005
-7.28104e-005
-6.45737e-005
-5.71072e-005
-5.03199e-005
-4.41256e-005
-3.84442e-005
-3.32026e-005
-2.83345e-005
-2.37802e-005
-1.94854e-005
-1.54012e-005
-1.14828e-005
-1.14828e-005
1.111e-005
1.111e-005
1.49135e-005
1.88944e-005
2.31015e-005
2.75895e-005
3.24195e-005
3.76609e-005
4.33924e-005
4.97035e-005
5.66956e-005
6.4483e-005
7.31926e-005
8.29635e-005
9.39445e-005
0.000106289
0.000120148
0.00013566
0.000152928
0.000171966
0.000192518
0.000213481
0.000231238
0.000236233
0.000214628
0.000242188
0.00016493
0.000186576
8.00156e-005
3.20215e-005
-4.40903e-009
-3.20333e-005
-8.00354e-005
-0.000186603
-0.00016496
-0.000242209
-0.000214639
-0.000236237
-0.00023124
-0.000213482
-0.00019252
-0.000171967
-0.00015293
-0.000135662
-0.000120149
-0.00010629
-9.39449e-005
-8.29638e-005
-7.31927e-005
-6.4483e-005
-5.66956e-005
-4.97034e-005
-4.33923e-005
-3.76608e-005
-3.24194e-005
-2.75894e-005
-2.31014e-005
-1.88943e-005
-1.49135e-005
-1.111e-005
-1.111e-005
1.06044e-005
1.06044e-005
1.42484e-005
1.8077e-005
2.21421e-005
2.65025e-005
3.12251e-005
3.63876e-005
4.20797e-005
4.84062e-005
5.54891e-005
6.34702e-005
7.25138e-005
8.28081e-005
9.45666e-005
0.000108028
0.000123458
0.000141155
0.000161478
0.000184912
0.000212165
0.000244027
0.000279244
0.000300167
0.000194816
0.000207925
9.21358e-005
-5.84553e-006
3.33525e-005
2.33569e-005
-5.09831e-009
-2.33699e-005
-3.33719e-005
5.81963e-006
-9.21748e-005
-0.000207982
-0.000194872
-0.000300201
-0.000279247
-0.000244027
-0.000212166
-0.000184914
-0.00016148
-0.000141156
-0.000123459
-0.000108029
-9.45669e-005
-8.28082e-005
-7.25138e-005
-6.34701e-005
-5.54889e-005
-4.8406e-005
-4.20795e-005
-3.63874e-005
-3.12249e-005
-2.65023e-005
-2.2142e-005
-1.80769e-005
-1.42483e-005
-1.06044e-005
-1.06044e-005
9.96088e-006
9.96088e-006
1.33987e-005
1.70231e-005
2.08875e-005
2.50531e-005
2.9591e-005
3.45847e-005
4.01328e-005
4.63526e-005
5.33844e-005
6.13952e-005
7.05846e-005
8.11889e-005
9.3486e-005
0.000107799
0.000124501
0.000144024
0.000166918
0.00019404
0.000227203
0.000271245
0.000342071
0.000272968
0.000128193
2.32467e-005
1.96535e-005
-9.00586e-005
-5.70583e-006
8.64094e-006
-8.93745e-010
-8.64202e-006
5.70765e-006
9.00582e-005
-1.96629e-005
-2.32797e-005
-0.000128255
-0.000273011
-0.000342084
-0.000271245
-0.000227204
-0.000194042
-0.00016692
-0.000144025
-0.000124501
-0.0001078
-9.34861e-005
-8.11888e-005
-7.05843e-005
-6.13949e-005
-5.3384e-005
-4.63522e-005
-4.01324e-005
-3.45843e-005
-2.95907e-005
-2.50528e-005
-2.08873e-005
-1.70229e-005
-1.33986e-005
-9.96084e-006
-9.96084e-006
9.17821e-006
9.17821e-006
1.23624e-005
1.57292e-005
1.93316e-005
2.32314e-005
2.75012e-005
3.22274e-005
3.75141e-005
4.34873e-005
5.03007e-005
5.81419e-005
6.72407e-005
7.7877e-005
9.03898e-005
0.000105183
0.000122722
0.000143523
0.00016813
0.000197128
0.00023138
0.000273058
0.000334359
0.000101975
8.71731e-005
-4.35394e-005
-8.22745e-007
-2.58308e-005
-9.16312e-006
-4.92538e-007
4.2417e-009
5.02151e-007
9.17523e-006
2.58415e-005
8.35219e-007
4.35511e-005
-8.71812e-005
-0.000102031
-0.000334469
-0.000273081
-0.000231385
-0.000197132
-0.000168133