# vtk DataFile Version 3.0
vtk output
ASCII
DATASET STRUCTURED_GRID
DIMENSIONS 61 71 1
POINTS 4331 double
0 0 0
0.05 0 0
0.1 0 0
0.15 0 0
0.2 0 0
0.25 0 0
0.3 0 0
0.35 0 0
0.4 0 0
0.45 0 0
0.5 0 0
0.55 0 0
0.6 0 0
0.65 0 0
0.7 0 0
0.75 0 0
0.8 0 0
0.85 0 0
0.9 0 0
0.95 0 0
1 0 0
1.05 0 0
1.1 0 0
1.15 0 0
1.2 0 0
1.25 0 0
1.3 0 0
1.35 0 0
1.4 0 0
1.45 0 0
1.5 0 0
1.55 0 0
1.6 0 0
1.65 0 0
1.7 0 0
1.75 0 0
1.8 0 0
1.85 0 0
1.9 0 0
1.95 0 0
2 0 0
2.05 0 0
2.1 0 0
2.15 0 0
2.2 0 0
2.25 0 0
2.3 0 0
2.35 0 0
2.4 0 0
2.45 0 0
2.5 0 0
2.55 0 0
2.6 0 0
2.65 0 0
2.7 0 0
2.75 0 0
2.8 0 0
2.85 0 0
2.9 0 0
2.95 0 0
3 0 0
0 0.05 0
0.05 0.05 0
0.1 0.05 0
0.15 0.05 0
0.2 0.05 0
0.25 0.05 0
0.3 0.05 0
0.35 0.05 0
0.4 0.05 0
0.45 0.05 0
0.5 0.05 0
0.55 0.05 0
0.6 0.05 0
0.65 0.05 0
0.7 0.05 0
0.75 0.05 0
0.8 0.05 0
0.85 0.05 0
0.9 0.05 0
0.95 0.05 0
1 0.05 0
1.05 0.05 0
1.1 0.05 0
1.15 0.05 0
1.2 0.05 0
1.25 0.05 0
1.3 0.05 0
1.35 0.05 0
1.4 0.05 0
1.45 0.05 0
1.5 0.05 0
1.55 0.05 0
1.6 0.05 0
1.65 0.05 0
1.7 0.05 0
1.75 0.05 0
1.8 0.05 0
1.85 0.05 0
1.9 0.05 0
1.95 0.05 0
2 0.05 0
2.05 0.05 0
2.1 0.05 0
2.15 0.05 0
2.2 0.05 0
2.25 0.05 0
2.3 0.05 0
2.35 0.05 0
2.4 0.05 0
2.45 0.05 0
2.5 0.05 0
2.55 0.05 0
2.6 0.05 0
2.65 0.05 0
2.7 0.05 0
2.75 0.05 0
2.8 0.05 0
2.85 0.05 0
2.9 0.05 0
2.95 0.05 0
3 0.05 0
0 0.1 0
0.05 0.1 0
0.1 0.1 0
0.15 0.1 0
0.2 0.1 0
0.25 0.1 0
0.3 0.1 0
0.35 0.1 0
0.4 0.1 0
0.45 0.1 0
0.5 0.1 0
0.55 0.1 0
0.6 0.1 0
0.65 0.1 0
0.7 0.1 0
0.75 0.1 0
0.8 0.1 0
0.85 0.1 0
0.9 0.1 0
0.95 0.1 0
1 0.1 0
1.05 0.1 0
1.1 0.1 0
1.15 0.1 0
1.2 0.1 0
1.25 0.1 0
1.3 0.1 0
1.35 0.1 0
1.4 0.1 0
1.45 0.1 0
1.5 0.1 0
1.55 0.1 0
1.6 0.1 0
1.65 0.1 0
1.7 0.1 0
1.75 0.1 0
1.8 0.1 0
1.85 0.1 0
1.9 0.1 0
1.95 0.1 0
2 0.1 0
2.05 0.1 0
2.1 0.1 0
2.15 0.1 0
2.2 0.1 0
2.25 0.1 0
2.3 0.1 0
2.35 0.1 0
2.4 0.1 0
2.45 0.1 0
2.5 0.1 0
2.55 0.1 0
2.6 0.1 0
2.65 0.1 0
2.7 0.1 0
2.75 0.1 0
2.8 0.1 0
2.85 0.1 0
2.9 0.1 0
2.95 0.1 0
3 0.1 0
0 0.15 0
0.05 0.15 0
0.1 0.15 0
0.15 0.15 0
0.2 0.15 0
0.25 0.15 0
0.3 0.15 0
0.35 0.15 0
0.4 0.15 0
0.45 0.15 0
0.5 0.15 0
0.55 0.15 0
0.6 0.15 0
0.65 0.15 0
0.7 0.15 0
0.75 0.15 0
0.8 0.15 0
0.85 0.15 0
0.9 0.15 0
0.95 0.15 0
1 0.15 0
1.05 0.15 0
1.1 0.15 0
1.15 0.15 0
1.2 0.15 0
1.25 0.15 0
1.3 0.15 0
1.35 0.15 0
1.4 0.15 0
1.45 0.15 0
1.5 0.15 0
1.55 0.15 0
1.6 0.15 0
1.65 0.15 0
1.7 0.15 0
1.75 0.15 0
1.8 0.15 0
1.85 0.15 0
1.9 0.15 0
1.95 0.15 0
2 0.15 0
2.05 0.15 0
2.1 0.15 0
2.15 0.15 0
2.2 0.15 0
2.25 0.15 0
2.3 0.15 0
2.35 0.15 0
2.4 0.15 0
2.45 0.15 0
2.5 0.15 0
2.55 0.15 0
2.6 0.15 0
2.65 0.15 0
2.7 0.15 0
2.75 0.15 0
2.8 0.15 0
2.85 0.15 0
2.9 0.15 0
2.95 0.15 0
3 0.15 0
0 0.2 0
0.05 0.2 0
0.1 0.2 0
0.15 0.2 0
0.2 0.2 0
0.25 0.2 0
0.3 0.2 0
0.35 0.2 0
0.4 0.2 0
0.45 0.2 0
0.5 0.2 0
0.55 0.2 0
0.6 0.2 0
0.65 0.2 0
0.7 0.2 0
0.75 0.2 0
0.8 0.2 0
0.85 0.2 0
0.9 0.2 0
0.95 0.2 0
1 0.2 0
1.05 0.2 0
1.1 0.2 0
1.15 0.2 0
1.2 0.2 0
1.25 0.2 0
1.3 0.2 0
1.35 0.2 0
1.4 0.2 0
1.45 0.2 0
1.5 0.2 0
1.55 0.2 0
1.6 0.2 0
1.65 0.2 0
1.7 0.2 0
1.75 0.2 0
1.8 0.2 0
1.85 0.2 0
1.9 0.2 0
1.95 0.2 0
2 0.2 0
2.05 0.2 0
2.1 0.2 0
2.15 0.2 0
2.2 0.2 0
2.25 0.2 0
2.3 0.2 0
2.35 0.2 0
2.4 0.2 0
2.45 0.2 0
2.5 0.2 0
2.55 0.2 0
2.6 0.2 0
2.65 0.2 0
2.7 0.2 0
2.75 0.2 0
2.8 0.2 0
2.85 0.2 0
2.9 0.2 0
2.95 0.2 0
3 0.2 0
0 0.25 0
0.05 0.25 0
0.1 0.25 0
0.15 0.25 0
0.2 0.25 0
0.25 0.25 0
0.3 0.25 0
0.35 0.25 0
0.4 0.25 0
0.45 0.25 0
0.5 0.25 0
0.55 0.25 0
0.6 0.25 0
0.65 0.25 0
0.7 0.25 0
0.75 0.25 0
0.8 0.25 0
0.85 0.25 0
0.9 0.25 0
0.95 0.25 0
1 0.25 0
1.05 0.25 0
1.1 0.25 0
1.15 0.25 0
1.2 0.25 0
1.25 0.25 0
1.3 0.25 0
1.35 0.25 0
1.4 0.25 0
1.45 0.25 0
1.5 0.25 0
1.55 0.25 0
1.6 0.25 0
1.65 0.25 0
1.7 0.25 0
1.75 0.25 0
1.8 0.25 0
1.85 0.25 0
1.9 0.25 0
1.95 0.25 0
2 0.25 0
2.05 0.25 0
2.1 0.25 0
2.15 0.25 0
2.2 0.25 0
2.25 0.25 0
2.3 0.25 0
2.35 0.25 0
2.4 0.25 0
2.45 0.25 0
2.5 0.25 0
2.55 0.25 0
2.6 0.25 0
2.65 0.25 0
2.7 0.25 0
2.75 0.25 0
2.8 0.25 0
2.85 0.25 0
2.9 0.25 0
2.95 0.25 0
3 0.25 0
0 0.3 0
0.05 0.3 0
0.1 0.3 0
0.15 0.3 0
0.2 0.3 0
0.25 0.3 0
0.3 0.3 0
0.35 0.3 0
0.4 0.3 0
0.45 0.3 0
0.5 0.3 0
0.55 0.3 0
0.6 0.3 0
0.65 0.3 0
0.7 0.3 0
0.75 0.3 0
0.8 0.3 0
0.85 0.3 0
0.9 0.3 0
0.95 0.3 0
1 0.3 0
1.05 0.3 0
1.1 0.3 0
1.15 0.3 0
1.2 0.3 0
1.25 0.3 0
1.3 0.3 0
1.35 0.3 0
1.4 0.3 0
1.45 0.3 0
1.5 0.3 0
1.55 0.3 0
1.6 0.3 0
1.65 0.3 0
1.7 0.3 0
1.75 0.3 0
1.8 0.3 0
1.85 0.3 0
1.9 0.3 0
1.95 0.3 0
2 0.3 0
2.05 0.3 0
2.1 0.3 0
2.15 0.3 0
2.2 0.3 0
2.25 0.3 0
2.3 0.3 0
2.35 0.3 0
2.4 0.3 0
2.45 0.3 0
2.5 0.3 0
2.55 0.3 0
2.6 0.3 0
2.65 0.3 0
2.7 0.3 0
2.75 0.3 0
2.8 0.3 0
2.85 0.3 0
2.9 0.3 0
2.95 0.3 0
3 0.3 0
0 0.35 0
0.05 0.35 0
0.1 0.35 0
0.15 0.35 0
0.2 0.35 0
0.25 0.35 0
0.3 0.35 0
0.35 0.35 0
0.4 0.35 0
0.45 0.35 0
0.5 0.35 0
0.55 0.35 0
0.6 0.35 0
0.65 0.35 0
0.7 0.35 0
0.75 0.35 0
0.8 0.35 0
0.85 0.35 0
0.9 0.35 0
0.95 0.35 0
1 0.35 0
1.05 0.35 0
1.1 0.35 0
1.15 0.35 0
1.2 0.35 0
1.25 0.35 0
1.3 0.35 0
1.35 0.35 0
1.4 0.35 0
1.45 0.35 0
1.5 0.35 0
1.55 0.35 0
1.6 0.35 0
1.65 0.35 0
1.7 0.35 0
1.75 0.35 0
1.8 0.35 0
1.85 0.35 0
1.9 0.35 0
1.95 0.35 0
2 0.35 0
2.05 0.35 0
2.1 0.35 0
2.15 0.35 0
2.2 0.35 0
2.25 0.35 0
2.3 0.35 0
2.35 0.35 0
2.4 0.35 0
2.45 0.35 0
2.5 0.35 0
2.55 0.35 0
2.6 0.35 0
2.65 0.35 0
2.7 0.35 0
2.75 0.35 0
2.8 0.35 0
2.85 0.35 0
2.9 0.35 0
2.95 0.35 0
3 0.35 0
0 0.4 0
0.05 0.4 0
0.1 0.4 0
0.15 0.4 0
0.2 0.4 0
0.25 0.4 0
0.3 0.4 0
0.35 0.4 0
0.4 0.4 0
0.45 0.4 0
0.5 0.4 0
0.55 0.4 0
0.6 0.4 0
0.65 0.4 0
0.7 0.4 0
0.75 0.4 0
0.8 0.4 0
0.85 0.4 0
0.9 0.4 0
0.95 0.4 0
1 0.4 0
1.05 0.4 0
1.1 0.4 0
1.15 0.4 0
1.2 0.4 0
1.25 0.4 0
1.3 0.4 0
1.35 0.4 0
1.4 0.4 0
1.45 0.4 0
1.5 0.4 0
1.55 0.4 0
1.6 0.4 0
1.65 0.4 0
1.7 0.4 0
1.75 0.4 0
1.8 0.4 0
1.85 0.4 0
1.9 0.4 0
1.95 0.4 0
2 0.4 0
2.05 0.4 0
2.1 0.4 0
2.15 0.4 0
2.2 0.4 0
2.25 0.4 0
2.3 0.4 0
2.35 0.4 0
2.4 0.4 0
2.45 0.4 0
2.5 0.4 0
2.55 0.4 0
2.6 0.4 0
2.65 0.4 0
2.7 0.4 0
2.75 0.4 0
2.8 0.4 0
2.85 0.4 0
2.9 0.4 0
2.95 0.4 0
3 0.4 0
0 0.45 0
0.05 0.45 0
0.1 0.45 0
0.15 0.45 0
0.2 0.45 0
0.25 0.45 0
0.3 0.45 0
0.35 0.45 0
0.4 0.45 0
0.45 0.45 0
0.5 0.45 0
0.55 0.45 0
0.6 0.45 0
0.65 0.45 0
0.7 0.45 0
0.75 0.45 0
0.8 0.45 0
0.85 0.45 0
0.9 0.45 0
0.95 0.45 0
1 0.45 0
1.05 0.45 0
1.1 0.45 0
1.15 0.45 0
1.2 0.45 0
1.25 0.45 0
1.3 0.45 0
1.35 0.45 0
1.4 0.45 0
1.45 0.45 0
1.5 0.45 0
1.55 0.45 0
1.6 0.45 0
1.65 0.45 0
1.7 0.45 0
1.75 0.45 0
1.8 0.45 0
1.85 0.45 0
1.9 0.45 0
1.95 0.45 0
2 0.45 0
2.05 0.45 0
2.1 0.45 0
2.15 0.45 0
2.2 0.45 0
2.25 0.45 0
2.3 0.45 0
2.35 0.45 0
2.4 0.45 0
2.45 0.45 0
2.5 0.45 0
2.55 0.45 0
2.6 0.45 0
2.65 0.45 0
2.7 0.45 0
2.75 0.45 0
2.8 0.45 0
2.85 0.45 0
2.9 0.45 0
2.95 0.45 0
3 0.45 0
0 0.5 0
0.05 0.5 0
0.1 0.5 0
0.15 0.5 0
0.2 0.5 0
0.25 0.5 0
0.3 0.5 0
0.35 0.5 0
0.4 0.5 0
0.45 0.5 0
0.5 0.5 0
0.55 0.5 0
0.6 0.5 0
0.65 0.5 0
0.7 0.5 0
0.75 0.5 0
0.8 0.5 0
0.85 0.5 0
0.9 0.5 0
0.95 0.5 0
1 0.5 0
1.05 0.5 0
1.1 0.5 0
1.15 0.5 0
1.2 0.5 0
1.25 0.5 0
1.3 0.5 0
1.35 0.5 0
1.4 0.5 0
1.45 0.5 0
1.5 0.5 0
1.55 0.5 0
1.6 0.5 0
1.65 0.5 0
1.7 0.5 0
1.75 0.5 0
1.8 0.5 0
1.85 0.5 0
1.9 0.5 0
1.95 0.5 0
2 0.5 0
2.05 0.5 0
2.1 0.5 0
2.15 0.5 0
2.2 0.5 0
2.25 0.5 0
2.3 0.5 0
2.35 0.5 0
2.4 0.5 0
2.45 0.5 0
2.5 0.5 0
2.55 0.5 0
2.6 0.5 0
2.65 0.5 0
2.7 0.5 0
2.75 0.5 0
2.8 0.5 0
2.85 0.5 0
2.9 0.5 0
2.95 0.5 0
3 0.5 0
0 0.55 0
0.05 0.55 0
0.1 0.55 0
0.15 0.55 0
0.2 0.55 0
0.25 0.55 0
0.3 0.55 0
0.35 0.55 0
0.4 0.55 0
0.45 0.55 0
0.5 0.55 0
0.55 0.55 0
0.6 0.55 0
0.65 0.55 0
0.7 0.55 0
0.75 0.55 0
0.8 0.55 0
0.85 0.55 0
0.9 0.55 0
0.95 0.55 0
1 0.55 0
1.05 0.55 0
1.1 0.55 0
1.15 0.55 0
1.2 0.55 0
1.25 0.55 0
1.3 0.55 0
1.35 0.55 0
1.4 0.55 0
1.45 0.55 0
1.5 0.55 0
1.55 0.55 0
1.6 0.55 0
1.65 0.55 0
1.7 0.55 0
1.75 0.55 0
1.8 0.55 0
1.85 0.55 0
1.9 0.55 0
1.95 0.55 0
2 0.55 0
2.05 0.55 0
2.1 0.55 0
2.15 0.55 0
2.2 0.55 0
2.25 0.55 0
2.3 0.55 0
2.35 0.55 0
2.4 0.55 0
2.45 0.55 0
2.5 0.55 0
2.55 0.55 0
2.6 0.55 0
2.65 0.55 0
2.7 0.55 0
2.75 0.55 0
2.8 0.55 0
2.85 0.55 0
2.9 0.55 0
2.95 0.55 0
3 0.55 0
0 0.6 0
0.05 0.6 0
0.1 0.6 0
0.15 0.6 0
0.2 0.6 0
0.25 0.6 0
0.3 0.6 0
0.35 0.6 0
0.4 0.6 0
0.45 0.6 0
0.5 0.6 0
0.55 0.6 0
0.6 0.6 0
0.65 0.6 0
0.7 0.6 0
0.75 0.6 0
0.8 0.6 0
0.85 0.6 0
0.9 0.6 0
0.95 0.6 0
1 0.6 0
1.05 0.6 0
1.1 0.6 0
1.15 0.6 0
1.2 0.6 0
1.25 0.6 0
1.3 0.6 0
1.35 0.6 0
1.4 0.6 0
1.45 0.6 0
1.5 0.6 0
1.55 0.6 0
1.6 0.6 0
1.65 0.6 0
1.7 0.6 0
1.75 0.6 0
1.8 0.6 0
1.85 0.6 0
1.9 0.6 0
1.95 0.6 0
2 0.6 0
2.05 0.6 0
2.1 0.6 0
2.15 0.6 0
2.2 0.6 0
2.25 0.6 0
2.3 0.6 0
2.35 0.6 0
2.4 0.6 0
2.45 0.6 0
2.5 0.6 0
2.55 0.6 0
2.6 0.6 0
2.65 0.6 0
2.7 0.6 0
2.75 0.6 0
2.8 0.6 0
2.85 0.6 0
2.9 0.6 0
2.95 0.6 0
3 0.6 0
0 0.65 0
0.05 0.65 0
0.1 0.65 0
0.15 0.65 0
0.2 0.65 0
0.25 0.65 0
0.3 0.65 0
0.35 0.65 0
0.4 0.65 0
0.45 0.65 0
0.5 0.65 0
0.55 0.65 0
0.6 0.65 0
0.65 0.65 0
0.7 0.65 0
0.75 0.65 0
0.8 0.65 0
0.85 0.65 0
0.9 0.65 0
0.95 0.65 0
1 0.65 0
1.05 0.65 0
1.1 0.65 0
1.15 0.65 0
1.2 0.65 0
1.25 0.65 0
1.3 0.65 0
1.35 0.65 0
1.4 0.65 0
1.45 0.65 0
1.5 0.65 0
1.55 0.65 0
1.6 0.65 0
1.65 0.65 0
1.7 0.65 0
1.75 0.65 0
1.8 0.65 0
1.85 0.65 0
1.9 0.65 0
1.95 0.65 0
2 0.65 0
2.05 0.65 0
2.1 0.65 0
2.15 0.65 0
2.2 0.65 0
2.25 0.65 0
2.3 0.65 0
2.35 0.65 0
2.4 0.65 0
2.45 0.65 0
2.5 0.65 0
[...]
POINT_DATA 4331
SCALARS u double
LOOKUP_TABLE default
0
0
0
0
0
0
0
0
0
0
0
0
0
0
0
0
0
0
0
0
0
0
0
0
0
0
0
0
0
0
0
0
0
0
0
0
0
0
0
0
0
0
0
0
0
0
0
0
0
0
0
0
0
0
0
0
0
0
0
0
0
3.48246e-006
3.48246e-006
5.28522e-006
7.05997e-006
8.79711e-006
1.04863e-005
1.21162e-005
1.36748e-005
1.51488e-005
1.65239e-005
1.77849e-005
1.89156e-005
1.98988e-005
2.07171e-005
2.13524e-005
2.17872e-005
2.20043e-005
2.19881e-005
2.17247e-005
2.12031e-005
2.04159e-005
1.93598e-005
1.80366e-005
1.64538e-005
1.4625e-005
1.25698e-005
1.03145e-005
7.89077e-006
5.33579e-006
2.69081e-006
7.19814e-011
-2.69067e-006
-5.33565e-006
-7.89063e-006
-1.03144e-005
-1.25697e-005
-1.46249e-005
-1.64537e-005
-1.80365e-005
-1.93597e-005
-2.04158e-005
-2.12031e-005
-2.17246e-005
-2.1988e-005
-2.20043e-005
-2.17872e-005
-2.13524e-005
-2.07171e-005
-1.98989e-005
-1.89156e-005
-1.7785e-005
-1.6524e-005
-1.51488e-005
-1.36748e-005
-1.21163e-005
-1.04863e-005
-8.79713e-006
-7.05998e-006
-5.28523e-006
-3.48246e-006
-3.48246e-006
3.52112e-006
3.52112e-006
5.34274e-006
7.13803e-006
8.89698e-006
1.06092e-005
1.22634e-005
1.38475e-005
1.53483e-005
1.67514e-005
1.80414e-005
1.92018e-005
2.0215e-005
2.10631e-005
2.17273e-005
2.21892e-005
2.24307e-005
2.2435e-005
2.21872e-005
2.1675e-005
2.08897e-005
1.98271e-005
1.8488e-005
1.68794e-005
1.50144e-005
1.29131e-005
1.06021e-005
8.11449e-006
5.48889e-006
2.76858e-006
7.60309e-011
-2.76843e-006
-5.48874e-006
-8.11435e-006
-1.0602e-005
-1.2913e-005
-1.50143e-005
-1.68793e-005
-1.84879e-005
-1.9827e-005
-2.08896e-005
-2.16749e-005
-2.21871e-005
-2.2435e-005
-2.24307e-005
-2.21892e-005
-2.17273e-005
-2.10631e-005
-2.02151e-005
-1.92018e-005
-1.80414e-005
-1.67514e-005
-1.53483e-005
-1.38475e-005
-1.22634e-005
-1.06092e-005
-8.897e-006
-7.13805e-006
-5.34275e-006
-3.52112e-006
-3.52112e-006
3.56721e-006
3.56721e-006
5.41162e-006
7.23097e-006
9.01578e-006
1.0756e-005
1.24406e-005
1.40577e-005
1.55941e-005
1.70355e-005
1.83663e-005
1.95696e-005
2.06273e-005
2.15206e-005
2.22297e-005
2.2735e-005
2.30167e-005
2.30564e-005
2.28372e-005
2.23447e-005
2.15684e-005
2.0502e-005
1.91448e-005
1.75026e-005
1.55881e-005
1.34212e-005
1.10296e-005
8.44801e-006
5.71765e-006
2.88493e-006
7.89818e-011
-2.88478e-006
-5.71749e-006
-8.44787e-006
-1.10294e-005
-1.34211e-005
-1.5588e-005
-1.75025e-005
-1.91448e-005
-2.05019e-005
-2.15683e-005
-2.23447e-005
-2.28372e-005
-2.30564e-005
-2.30167e-005
-2.2735e-005
-2.22297e-005
-2.15206e-005
-2.06273e-005
-1.95696e-005
-1.83664e-005
-1.70356e-005
-1.55942e-005
-1.40577e-005
-1.24406e-005
-1.0756e-005
-9.0158e-006
-7.23098e-006
-5.41163e-006
-3.56721e-006
-3.56721e-006
3.62939e-006
3.62939e-006
5.50554e-006
7.35837e-006
9.17912e-006
1.09582e-005
1.26852e-005
1.43484e-005
1.59348e-005
1.74302e-005
1.88186e-005
2.00827e-005
2.12039e-005
2.21619e-005
2.29359e-005
2.3504e-005
2.38446e-005
2.39366e-005
2.37602e-005
2.32982e-005
2.25369e-005
2.14674e-005
2.00865e-005
1.83981e-005
1.64138e-005
1.41539e-005
1.16469e-005
8.93024e-006
6.04868e-006
3.0534e-006
8.32372e-011
-3.05324e-006
-6.04852e-006
-8.93009e-006
-1.16468e-005
-1.41537e-005
-1.64137e-005
-1.8398e-005
-2.00864e-005
-2.14673e-005
-2.25369e-005
-2.32981e-005
-2.37601e-005
-2.39366e-005
-2.38446e-005
-2.3504e-005
-2.29359e-005
-2.2162e-005
-2.12039e-005
-2.00828e-005
-1.88186e-005
-1.74302e-005
-1.59349e-005
-1.43484e-005
-1.26852e-005
-1.09583e-005
-9.17914e-006
-7.35839e-006
-5.50556e-006
-3.62939e-006
-3.62939e-006
3.70679e-006
3.70679e-006
5.62277e-006
7.51783e-006
9.38404e-006
1.12126e-005
1.29935e-005
1.47157e-005
1.63665e-005
1.79316e-005
1.9395e-005
2.07388e-005
2.19433e-005
2.29873e-005
2.38476e-005
2.45005e-005
2.49211e-005
2.50849e-005
2.49686e-005
2.45507e-005
2.38135e-005
2.2744e-005
2.13356e-005
1.95893e-005
1.75153e-005
1.51334e-005
1.24739e-005
9.57729e-006
6.4934e-006
3.27989e-006
8.89161e-011
-3.27971e-006
-6.49323e-006
-9.57713e-006
-1.24737e-005
-1.51332e-005
-1.75151e-005
-1.95892e-005
-2.13355e-005
-2.2744e-005
-2.38135e-005
-2.45507e-005
-2.49686e-005
-2.50849e-005
-2.49211e-005
-2.45005e-005
-2.38477e-005
-2.29873e-005
-2.19434e-005
-2.07388e-005
-1.9395e-005
-1.79317e-005
-1.63666e-005
-1.47158e-005
-1.29936e-005
-1.12126e-005
-9.38407e-006
-7.51785e-006
-5.62278e-006
-3.7068e-006
-3.7068e-006
3.79786e-006
3.79786e-006
5.76088e-006
7.7061e-006
9.62658e-006
1.15144e-005
1.33606e-005
1.51544e-005
1.68838e-005
1.85347e-005
2.00909e-005
2.1534e-005
2.28433e-005
2.3996e-005
2.49669e-005
2.5729e-005
2.62541e-005
2.65133e-005
2.64783e-005
2.61225e-005
2.54223e-005
2.43595e-005
2.29224e-005
2.11082e-005
1.89244e-005
1.63904e-005
1.35379e-005
1.04116e-005
7.0677e-006
3.57265e-006
9.61706e-011
-3.57246e-006
-7.06751e-006
-1.04114e-005
-1.35377e-005
-1.63902e-005
-1.89242e-005
-2.1108e-005
-2.29223e-005
-2.43594e-005
-2.54223e-005
-2.61224e-005
-2.64783e-005
-2.65133e-005
-2.62541e-005
-2.5729e-005
-2.49669e-005
-2.39961e-005
-2.28434e-005
-2.1534e-005
-2.00909e-005
-1.85347e-005
-1.68839e-005
-1.51545e-005
-1.33606e-005
-1.15145e-005
-9.62662e-006
-7.70612e-006
-5.7609e-006
-3.79787e-006
-3.79787e-006
3.90052e-006
3.90052e-006
5.91676e-006
7.91906e-006
9.90171e-006
1.1858e-005
1.37798e-005
1.56575e-005
1.74795e-005
1.92323e-005
2.08997e-005
2.24628e-005
2.38999e-005
2.51864e-005
2.62946e-005
2.71943e-005
2.78527e-005
2.82358e-005
2.83088e-005
2.80383e-005
2.73936e-005
2.6349e-005
2.48861e-005
2.29964e-005
2.06837e-005
1.79656e-005
1.48757e-005
1.14633e-005
7.79311e-006
3.94288e-006
1.05189e-010
-3.94267e-006
-7.79291e-006
-1.14631e-005
-1.48756e-005
-1.79655e-005
-2.06835e-005
-2.29963e-005
-2.4886e-005
-2.63489e-005
-2.73936e-005
-2.80383e-005
-2.83088e-005
-2.82358e-005
-2.78527e-005
-2.71943e-005
-2.62947e-005
-2.51865e-005
-2.39e-005
-2.24628e-005
-2.08997e-005
-1.92324e-005
-1.74796e-005
-1.56575e-005
-1.37798e-005
-1.1858e-005
-9.90175e-006
-7.91909e-006
-5.91678e-006
-3.90053e-006
-3.90053e-006
4.01218e-006
4.01218e-006
6.08656e-006
8.15164e-006
1.02032e-005
1.22359e-005
1.4243e-005
1.6216e-005
1.81445e-005
2.00153e-005
2.18126e-005
2.35174e-005
2.51069e-005
2.65549e-005
2.78309e-005
2.89007e-005
2.97266e-005
3.0268e-005
3.04826e-005
3.03283e-005
2.97647e-005
2.87566e-005
2.72764e-005
2.53076e-005
2.28481e-005
1.99127e-005
1.6536e-005
1.27728e-005
8.69848e-006
4.40564e-006
1.16193e-010
-4.40541e-006
-8.69825e-006
-1.27726e-005
-1.65358e-005
-1.99125e-005
-2.28479e-005
-2.53075e-005
-2.72763e-005
-2.87565e-005
-2.97647e-005
-3.03283e-005
-3.04827e-005
-3.0268e-005
-2.97266e-005
-2.89007e-005
-2.78309e-005
-2.6555e-005
-2.5107e-005
-2.35174e-005
-2.18127e-005
-2.00154e-005
-1.81446e-005
-1.62161e-005
-1.4243e-005
-1.22359e-005
-1.02032e-005
-8.15168e-006
-6.08659e-006
-4.01219e-006
-4.01219e-006
4.12972e-006
4.12972e-006
6.26564e-006
8.3977e-006
1.05235e-005
1.26393e-005
1.47402e-005
1.68191e-005
1.88669e-005
2.08716e-005
2.2818e-005
2.4687e-005
2.64554e-005
2.80951e-005
2.95731e-005
3.08508e-005
3.18848e-005
3.26268e-005
3.30253e-005
3.30272e-005
3.25801e-005
3.16361e-005
3.01551e-005
2.81094e-005
2.54881e-005
2.2301e-005
1.85825e-005
1.43935e-005
9.82226e-006
4.98106e-006
1.29427e-010
-4.9808e-006
-9.82201e-006
-1.43933e-005
-1.85822e-005
-2.23008e-005
-2.54879e-005
-2.81093e-005
-3.01549e-005
-3.1636e-005
-3.25801e-005
-3.30272e-005
-3.30253e-005
-3.26268e-005
-3.18848e-005
-3.08509e-005
-2.95732e-005
-2.80952e-005
-2.64555e-005
-2.46871e-005
-2.28181e-005
-2.08717e-005
-1.8867e-005
-1.68192e-005
-1.47403e-005
-1.26394e-005
-1.05235e-005
-8.39775e-006
-6.26567e-006
-4.12974e-006
-4.12974e-006
4.24949e-006
4.24949e-006
6.44855e-006
8.65003e-006
1.08536e-005
1.30576e-005
1.52592e-005
1.74533e-005
1.96324e-005
2.17862e-005
2.39005e-005
2.59571e-005
2.79324e-005
2.9797e-005
3.15154e-005
3.30445e-005
3.43346e-005
3.53288e-005
3.59644e-005
3.61748e-005
3.58923e-005
3.50523e-005
3.35982e-005
3.14866e-005
2.86938e-005
2.52207e-005
2.10992e-005
1.63963e-005
1.1216e-005
5.69616e-006
1.4514e-010
-5.69587e-006
-1.12157e-005
-1.6396e-005
-2.1099e-005
-2.52205e-005
-2.86936e-005
-3.14865e-005
-3.35981e-005
-3.50523e-005
-3.58923e-005
-3.61748e-005
-3.59645e-005
-3.53289e-005
-3.43347e-005
-3.30446e-005
-3.15155e-005
-2.97972e-005
-2.79325e-005
-2.59572e-005
-2.39007e-005
-2.17863e-005
-1.96325e-005
-1.74534e-005
-1.52593e-005
-1.30577e-005
-1.08536e-005
-8.65009e-006
-6.44859e-006
-4.24952e-006
-4.24952e-006
4.36727e-006
4.36727e-006
6.629e-006
8.90027e-006
1.11831e-005
1.34784e-005
1.57857e-005
1.81022e-005
2.04231e-005
2.274e-005
2.50408e-005
2.73083e-005
2.95197e-005
3.16451e-005
3.36466e-005
3.54771e-005
3.70802e-005
3.83892e-005
3.93285e-005
3.98151e-005
3.97618e-005
3.90826e-005
3.76985e-005
3.5545e-005
3.25794e-005
2.87887e-005
2.41973e-005
1.88765e-005
1.2949e-005
6.58746e-006
1.63541e-010
-6.58714e-006
-1.29487e-005
-1.88762e-005
-2.4197e-005
-2.87884e-005
-3.25792e-005
-3.55448e-005
-3.76983e-005
-3.90825e-005
-3.97618e-005
-3.98151e-005
-3.93286e-005
-3.83893e-005
-3.70803e-005
-3.54773e-005
-3.36467e-005
-3.16453e-005
-2.95199e-005
-2.73085e-005
-2.50409e-005
-2.27402e-005
-2.04232e-005
-1.81023e-005
-1.57858e-005
-1.34785e-005
-1.11832e-005
-8.90033e-006
-6.62905e-006
-4.36731e-006
-4.36731e-006
4.47832e-006
4.47832e-006
6.79988e-006
9.13889e-006
1.15001e-005
1.38873e-005
1.63027e-005
1.87468e-005
2.12176e-005
2.37099e-005
2.62141e-005
2.87156e-005
3.1193e-005
3.36169e-005
3.59484e-005
3.8137e-005
4.01195e-005
4.18191e-005
4.31452e-005
4.39949e-005
4.42569e-005
4.38174e-005
4.25679e-005
4.04152e-005
3.72901e-005
3.31569e-005
2.80248e-005
2.19631e-005
1.5116e-005
7.70449e-006
1.84717e-010
-7.70412e-006
-1.51156e-005
-2.19627e-005
-2.80245e-005
-3.31566e-005
-3.72898e-005
-4.0415e-005
-4.25678e-005
-4.38173e-005
-4.42569e-005
-4.39949e-005
-4.31453e-005
-4.18192e-005
-4.01197e-005
-3.81372e-005
-3.59486e-005
-3.36171e-005
-3.11931e-005
-2.87157e-005
-2.62143e-005
-2.371e-005
-2.12178e-005
-1.87469e-005
-1.63028e-005
-1.38874e-005
-1.15002e-005
-9.13896e-006
-6.79993e-006
-4.47836e-006
-4.47836e-006
4.57735e-006
4.57735e-006
6.95327e-006
9.35527e-006
1.17911e-005
1.42677e-005
1.67909e-005
1.93646e-005
2.19907e-005
2.46676e-005
2.739e-005
3.01467e-005
3.29194e-005
3.56811e-005
3.83929e-005
4.10027e-005
4.34415e-005
4.56223e-005
4.74378e-005
4.87621e-005
4.94534e-005
4.93618e-005
4.83403e-005
4.62574e-005
4.30085e-005
3.8524e-005
3.27817e-005
2.5835e-005
1.78473e-005
9.11425e-006
2.08483e-010
-9.11383e-006
-1.78469e-005
-2.58346e-005
-3.27813e-005
-3.85236e-005
-4.30082e-005
-4.62572e-005
-4.83401e-005
-4.93617e-005
-4.94534e-005
-4.87622e-005
-4.7438e-005
-4.56224e-005
-4.34418e-005
-4.10029e-005
-3.83932e-005
-3.56813e-005
-3.29196e-005
-3.01469e-005
-2.73902e-005
-2.46678e-005
-2.19908e-005
-1.93647e-005
-1.6791e-005
-1.42678e-005
-1.17912e-005
-9.35534e-006
-6.95334e-006
-4.5774e-006
-4.5774e-006
4.65864e-006
4.65864e-006
7.08057e-006
9.53775e-006
1.20413e-005
1.46016e-005
1.72284e-005
1.993e-005
2.27126e-005
2.55799e-005
2.85314e-005
3.15615e-005
3.46568e-005
3.77947e-005
4.09394e-005
4.4039e-005
4.70214e-005
4.97903e-005
5.22215e-005
5.4162e-005
5.54324e-005
5.58358e-005
5.51737e-005
5.32655e-005
4.99624e-005
4.51484e-005
3.8743e-005
3.07476e-005
2.1324e-005
1.09049e-005
2.34082e-010
-1.09044e-005
-2.13236e-005
-3.07471e-005
-3.87425e-005
-4.5148e-005
-4.9962e-005
-5.32652e-005
-5.51735e-005
-5.58358e-005
-5.54324e-005
-5.41621e-005
-5.22217e-005
-4.97905e-005
-4.70217e-005
-4.40393e-005
-4.09397e-005
-3.7795e-005
-3.46571e-005
-3.15617e-005
-2.85316e-005
-2.55801e-005
-2.27128e-005
-1.99301e-005
-1.72286e-005
-1.46017e-005
-1.20414e-005
-9.53784e-006
-7.08064e-006
-4.6587e-006
-4.6587e-006
4.71609e-006
4.71609e-006
7.17257e-006
9.67386e-006
1.22345e-005
1.4869e-005
1.75911e-005
2.04141e-005
2.33498e-005
2.64077e-005
2.95942e-005
3.29107e-005
3.63516e-005
3.99013e-005
4.35306e-005
4.71922e-005
5.08146e-005
5.42956e-005
5.74954e-005
6.02316e-005
6.2278e-005
6.33749e-005
6.32528e-005
6.16679e-005
5.84268e-005
5.3364e-005
4.62938e-005
3.70882e-005
2.57962e-005
1.3181e-005
2.59393e-010
-1.31804e-005
-2.57957e-005
-3.70876e-005
-4.62932e-005
-5.33635e-005
-5.84264e-005
-6.16677e-005
-6.32527e-005
-6.33749e-005
-6.22781e-005
-6.02318e-005
-5.74957e-005
-5.42959e-005
-5.0815e-005
-4.71926e-005
-4.3531e-005
-3.99016e-005
-3.63519e-005
-3.2911e-005
-2.95945e-005
-2.64079e-005
-2.335e-005
-2.04143e-005
-1.75913e-005
-1.48691e-005
-1.22346e-005
-9.67395e-006
-7.17265e-006
-4.71616e-006
-4.71616e-006
4.74339e-006
4.74339e-006
7.21975e-006
9.75054e-006
1.2354e-005
1.50486e-005
1.78529e-005
2.07855e-005
2.38646e-005
2.71068e-005
3.05269e-005
3.41355e-005
3.79373e-005
4.19279e-005
4.60894e-005
5.03844e-005
5.47489e-005
5.90817e-005
6.32328e-005
6.69905e-005
7.00727e-005
7.21327e-005
7.27943e-005
7.17262e-005
6.87125e-005
6.35867e-005
5.59799e-005
4.55148e-005
3.15916e-005
1.60224e-005
2.77998e-010
-1.60219e-005
-3.15909e-005
-4.5514e-005
-5.59792e-005
-6.3586e-005
-6.8712e-005
-7.17259e-005
-7.27942e-005
-7.21327e-005
-7.00729e-005
-6.69908e-005
-6.32331e-005
-5.90821e-005
-5.47493e-005
-5.03848e-005
-4.60898e-005
-4.19283e-005
-3.79376e-005
-3.41357e-005
-3.05271e-005
-2.7107e-005
-2.38648e-005
-2.07857e-005
-1.7853e-005
-1.50487e-005
-1.23541e-005
-9.75064e-006
-7.21983e-006
-4.74347e-006
-4.74347e-006
4.7342e-006
4.7342e-006
7.21246e-006
9.75453e-006
1.23823e-005
1.51183e-005
1.79863e-005
2.10105e-005
2.4216e-005
2.7628e-005
3.12708e-005
3.51667e-005
3.9334e-005
4.37835e-005
4.85142e-005
5.35068e-005
5.87145e-005
6.40491e-005
6.93631e-005
7.44243e-005
7.88892e-005
8.22883e-005
8.40651e-005
8.37297e-005
8.11097e-005
7.62899e-005
6.85241e-005
5.73992e-005
3.90327e-005
1.93169e-005
2.6622e-010
-1.93162e-005
-3.90319e-005
-5.73983e-005
-6.85231e-005
-7.6289e-005
-8.11091e-005
-8.37294e-005
-8.4065e-005
-8.22884e-005
-7.88895e-005
-7.44248e-005
-6.93636e-005
-6.40496e-005
-5.8715e-005
-5.35073e-005
-4.85147e-005
-4.37839e-005
-3.93344e-005
-3.51671e-005
-3.1271e-005
-2.76282e-005
-2.42162e-005
-2.10107e-005
-1.79864e-005
-1.51184e-005
-1.23824e-005
-9.75463e-006
-7.21255e-006
-4.73428e-006
-4.73428e-006
4.68236e-006
4.68236e-006
7.14133e-006
9.67281e-006
1.23021e-005
1.50561e-005
1.79633e-005
2.1054e-005
2.43609e-005
2.79181e-005
3.17613e-005
3.59265e-005
4.04484e-005
4.53576e-005
5.06768e-005
5.64139e-005
6.25526e-005
6.90368e-005
7.57456e-005
8.24541e-005
8.87711e-005
9.40656e-005
9.74474e-005
9.80172e-005
9.57062e-005
9.19385e-005
8.44266e-005
7.65225e-005
4.78198e-005
2.22098e-005
1.21928e-010
-2.22092e-005
-4.78187e-005
-7.65211e-005
-8.44254e-005
-9.19373e-005
-9.57056e-005
-9.80169e-005
-9.74474e-005
-9.40658e-005
-8.87715e-005
-8.24547e-005
-7.57463e-005
-6.90374e-005
-6.25533e-005
-5.64146e-005
-5.06774e-005
-4.53581e-005
-4.04488e-005
-3.59269e-005
-3.17616e-005
-2.79184e-005
-2.43611e-005
-2.10542e-005
-1.79634e-005
-1.50562e-005
-1.23023e-005
-9.67292e-006
-7.14142e-006
-4.68244e-006
-4.68244e-006
4.58219e-006
4.58219e-006
6.99766e-006
9.49322e-006
1.20973e-005
1.48407e-005
1.77565e-005
2.08814e-005
2.42553e-005
2.79222e-005
3.19298e-005
3.63294e-005
4.11751e-005
4.65215e-005
5.24212e-005
5.89192e-005
6.6045e-005
7.37992e-005
8.21282e-005
9.08748e-005
9.96747e-005
0.000107755
0.000113641
0.000115185
0.000111759
0.00011133
0.0001007
0.000115592
5.30239e-005
2.14309e-005
-5.54897e-010
-2.14321e-005
-5.30251e-005
-0.000115592
-0.000100699
-0.000111327
-0.000111758
-0.000115185
-0.000113641
-0.000107755
-9.96753e-005
-9.08756e-005
-8.21291e-005
-7.38001e-005
-6.60458e-005
-5.89199e-005
-5.24218e-005
-4.65221e-005
-4.11755e-005
-3.63298e-005
-3.19301e-005
-2.79224e-005
-2.42555e-005
-2.08816e-005
-1.77567e-005
-1.48408e-005
-1.20975e-005
-9.49333e-006
-6.99776e-006
-4.58228e-006
-4.58228e-006
4.42878e-006
4.42878e-006
6.7739e-006
9.20504e-006
1.17533e-005
1.44527e-005
1.73407e-005
2.04596e-005
2.38567e-005
2.75854e-005
3.1706e-005
3.62862e-005
4.14008e-005
4.7132e-005
5.3567e-005
6.07961e-005
6.89087e-005
7.79863e-005
8.80925e-005
9.92415e-005
0.000111297
0.000123637
0.000134176
0.000137322
0.000124805
0.000141137
9.50273e-005
0.000106675
4.59884e-005
1.8786e-005
-1.62878e-009
-1.8791e-005
-4.59979e-005
-0.00010669
-9.50444e-005
-0.000141147
-0.000124809
-0.000137322
-0.000134177
-0.000123638
-0.000111298
-9.92426e-005
-8.80937e-005
-7.79875e-005
-6.89097e-005
-6.0797e-005
-5.35677e-005
-4.71325e-005
-4.14013e-005
-3.62865e-005
-3.17063e-005
-2.75856e-005
-2.38569e-005
-2.04598e-005
-1.73409e-005
-1.44528e-005
-1.17534e-005
-9.20514e-006
-6.77399e-006
-4.42887e-006
-4.42887e-006
4.21832e-006
4.21832e-006
6.46409e-006
8.7997e-006
1.12581e-005
1.38759e-005
1.66941e-005
1.97596e-005
2.31263e-005
2.68565e-005
3.10226e-005
3.57082e-005
4.10099e-005
4.70383e-005
5.39183e-005
6.17894e-005
7.08067e-005
8.11446e-005
9.30134e-005
0.000106701
0.000122635
0.00014132
0.00016211
0.000175238
0.000112936
0.000119884
5.20431e-005
-1.03025e-005
1.89299e-005
1.41733e-005
-1.04756e-009
-1.41769e-005
-1.89373e-005
1.02882e-005
-5.20671e-005
-0.000119918
-0.000112969
-0.000175256
-0.00016211
-0.000141321
-0.000122636
-0.000106702
-9.3015e-005
-8.1146e-005
-7.08079e-005
-6.17904e-005
-5.3919e-005
-4.70389e-005
-4.10104e-005
-3.57085e-005
-3.10228e-005
-2.68567e-005
-2.31265e-005
-1.97597e-005
-1.66942e-005
-1.3876e-005
-1.12582e-005
-8.7998e-006
-6.46419e-006
-4.21841e-006
-4.21841e-006
3.94841e-006
3.94841e-006
6.06444e-006
8.27152e-006
1.06036e-005
1.30986e-005
1.58001e-005
1.87583e-005
2.20323e-005
2.56917e-005
2.98195e-005
3.45139e-005
3.98922e-005
4.60928e-005
5.3278e-005
6.16363e-005
7.13838e-005
8.27714e-005
9.61153e-005
0.000111912
0.000131221
0.000156906
0.000198867
0.000157717
7.48392e-005
9.50351e-006
1.06725e-005
-5.82456e-005
-3.96074e-006
5.33409e-006
1.51982e-009
-5.3309e-006
3.96477e-006
5.82485e-005
-1.06752e-005
-9.52366e-006
-7.48786e-005
-0.000157746
-0.000198876
-0.000156907
-0.000131224
-0.000111914
-9.61175e-005
-8.27732e-005
-7.13852e-005
-6.16374e-005
-5.32788e-005
-4.60933e-005
-3.98926e-005
-3.45142e-005
-2.98197e-005
-2.56919e-005
-2.20324e-005
-1.87584e-005
-1.58002e-005
-1.30987e-005
-1.06037e-005
-8.27161e-006
-6.06453e-006
-3.94851e-006
-3.94851e-006
3.61838e-006
3.61838e-006
5.57373e-006
7.61837e-006
9.78602e-006
1.21149e-005
1.46493e-005
1.74412e-005
2.05527e-005
2.40586e-005
2.80495e-005
3.26357e-005
3.7952e-005
4.41623e-005
5.14646e-005
6.00937e-005
7.03203e-005
8.24414e-005
9.6764e-005
0.000113609
0.000133436
0.000157375
0.000192854
5.47864e-005
5.35786e-005
-2.75771e-005
-4.34752e-007
-1.64809e-005
-6.00957e-006
-4.30023e-007
4.29781e-009
4.38961e-007
6.01938e-006
1.64908e-005
4.46037e-007
2.75873e-005