# vtk DataFile Version 3.0
vtk output
ASCII
DATASET STRUCTURED_GRID
DIMENSIONS 61 71 1
POINTS 4331 double
0 0 0
0.05 0 0
0.1 0 0
0.15 0 0
0.2 0 0
0.25 0 0
0.3 0 0
0.35 0 0
0.4 0 0
0.45 0 0
0.5 0 0
0.55 0 0
0.6 0 0
0.65 0 0
0.7 0 0
0.75 0 0
0.8 0 0
0.85 0 0
0.9 0 0
0.95 0 0
1 0 0
1.05 0 0
1.1 0 0
1.15 0 0
1.2 0 0
1.25 0 0
1.3 0 0
1.35 0 0
1.4 0 0
1.45 0 0
1.5 0 0
1.55 0 0
1.6 0 0
1.65 0 0
1.7 0 0
1.75 0 0
1.8 0 0
1.85 0 0
1.9 0 0
1.95 0 0
2 0 0
2.05 0 0
2.1 0 0
2.15 0 0
2.2 0 0
2.25 0 0
2.3 0 0
2.35 0 0
2.4 0 0
2.45 0 0
2.5 0 0
2.55 0 0
2.6 0 0
2.65 0 0
2.7 0 0
2.75 0 0
2.8 0 0
2.85 0 0
2.9 0 0
2.95 0 0
3 0 0
0 0.05 0
0.05 0.05 0
0.1 0.05 0
0.15 0.05 0
0.2 0.05 0
0.25 0.05 0
0.3 0.05 0
0.35 0.05 0
0.4 0.05 0
0.45 0.05 0
0.5 0.05 0
0.55 0.05 0
0.6 0.05 0
0.65 0.05 0
0.7 0.05 0
0.75 0.05 0
0.8 0.05 0
0.85 0.05 0
0.9 0.05 0
0.95 0.05 0
1 0.05 0
1.05 0.05 0
1.1 0.05 0
1.15 0.05 0
1.2 0.05 0
1.25 0.05 0
1.3 0.05 0
1.35 0.05 0
1.4 0.05 0
1.45 0.05 0
1.5 0.05 0
1.55 0.05 0
1.6 0.05 0
1.65 0.05 0
1.7 0.05 0
1.75 0.05 0
1.8 0.05 0
1.85 0.05 0
1.9 0.05 0
1.95 0.05 0
2 0.05 0
2.05 0.05 0
2.1 0.05 0
2.15 0.05 0
2.2 0.05 0
2.25 0.05 0
2.3 0.05 0
2.35 0.05 0
2.4 0.05 0
2.45 0.05 0
2.5 0.05 0
2.55 0.05 0
2.6 0.05 0
2.65 0.05 0
2.7 0.05 0
2.75 0.05 0
2.8 0.05 0
2.85 0.05 0
2.9 0.05 0
2.95 0.05 0
3 0.05 0
0 0.1 0
0.05 0.1 0
0.1 0.1 0
0.15 0.1 0
0.2 0.1 0
0.25 0.1 0
0.3 0.1 0
0.35 0.1 0
0.4 0.1 0
0.45 0.1 0
0.5 0.1 0
0.55 0.1 0
0.6 0.1 0
0.65 0.1 0
0.7 0.1 0
0.75 0.1 0
0.8 0.1 0
0.85 0.1 0
0.9 0.1 0
0.95 0.1 0
1 0.1 0
1.05 0.1 0
1.1 0.1 0
1.15 0.1 0
1.2 0.1 0
1.25 0.1 0
1.3 0.1 0
1.35 0.1 0
1.4 0.1 0
1.45 0.1 0
1.5 0.1 0
1.55 0.1 0
1.6 0.1 0
1.65 0.1 0
1.7 0.1 0
1.75 0.1 0
1.8 0.1 0
1.85 0.1 0
1.9 0.1 0
1.95 0.1 0
2 0.1 0
2.05 0.1 0
2.1 0.1 0
2.15 0.1 0
2.2 0.1 0
2.25 0.1 0
2.3 0.1 0
2.35 0.1 0
2.4 0.1 0
2.45 0.1 0
2.5 0.1 0
2.55 0.1 0
2.6 0.1 0
2.65 0.1 0
2.7 0.1 0
2.75 0.1 0
2.8 0.1 0
2.85 0.1 0
2.9 0.1 0
2.95 0.1 0
3 0.1 0
0 0.15 0
0.05 0.15 0
0.1 0.15 0
0.15 0.15 0
0.2 0.15 0
0.25 0.15 0
0.3 0.15 0
0.35 0.15 0
0.4 0.15 0
0.45 0.15 0
0.5 0.15 0
0.55 0.15 0
0.6 0.15 0
0.65 0.15 0
0.7 0.15 0
0.75 0.15 0
0.8 0.15 0
0.85 0.15 0
0.9 0.15 0
0.95 0.15 0
1 0.15 0
1.05 0.15 0
1.1 0.15 0
1.15 0.15 0
1.2 0.15 0
1.25 0.15 0
1.3 0.15 0
1.35 0.15 0
1.4 0.15 0
1.45 0.15 0
1.5 0.15 0
1.55 0.15 0
1.6 0.15 0
1.65 0.15 0
1.7 0.15 0
1.75 0.15 0
1.8 0.15 0
1.85 0.15 0
1.9 0.15 0
1.95 0.15 0
2 0.15 0
2.05 0.15 0
2.1 0.15 0
2.15 0.15 0
2.2 0.15 0
2.25 0.15 0
2.3 0.15 0
2.35 0.15 0
2.4 0.15 0
2.45 0.15 0
2.5 0.15 0
2.55 0.15 0
2.6 0.15 0
2.65 0.15 0
2.7 0.15 0
2.75 0.15 0
2.8 0.15 0
2.85 0.15 0
2.9 0.15 0
2.95 0.15 0
3 0.15 0
0 0.2 0
0.05 0.2 0
0.1 0.2 0
0.15 0.2 0
0.2 0.2 0
0.25 0.2 0
0.3 0.2 0
0.35 0.2 0
0.4 0.2 0
0.45 0.2 0
0.5 0.2 0
0.55 0.2 0
0.6 0.2 0
0.65 0.2 0
0.7 0.2 0
0.75 0.2 0
0.8 0.2 0
0.85 0.2 0
0.9 0.2 0
0.95 0.2 0
1 0.2 0
1.05 0.2 0
1.1 0.2 0
1.15 0.2 0
1.2 0.2 0
1.25 0.2 0
1.3 0.2 0
1.35 0.2 0
1.4 0.2 0
1.45 0.2 0
1.5 0.2 0
1.55 0.2 0
1.6 0.2 0
1.65 0.2 0
1.7 0.2 0
1.75 0.2 0
1.8 0.2 0
1.85 0.2 0
1.9 0.2 0
1.95 0.2 0
2 0.2 0
2.05 0.2 0
2.1 0.2 0
2.15 0.2 0
2.2 0.2 0
2.25 0.2 0
2.3 0.2 0
2.35 0.2 0
2.4 0.2 0
2.45 0.2 0
2.5 0.2 0
2.55 0.2 0
2.6 0.2 0
2.65 0.2 0
2.7 0.2 0
2.75 0.2 0
2.8 0.2 0
2.85 0.2 0
2.9 0.2 0
2.95 0.2 0
3 0.2 0
0 0.25 0
0.05 0.25 0
0.1 0.25 0
0.15 0.25 0
0.2 0.25 0
0.25 0.25 0
0.3 0.25 0
0.35 0.25 0
0.4 0.25 0
0.45 0.25 0
0.5 0.25 0
0.55 0.25 0
0.6 0.25 0
0.65 0.25 0
0.7 0.25 0
0.75 0.25 0
0.8 0.25 0
0.85 0.25 0
0.9 0.25 0
0.95 0.25 0
1 0.25 0
1.05 0.25 0
1.1 0.25 0
1.15 0.25 0
1.2 0.25 0
1.25 0.25 0
1.3 0.25 0
1.35 0.25 0
1.4 0.25 0
1.45 0.25 0
1.5 0.25 0
1.55 0.25 0
1.6 0.25 0
1.65 0.25 0
1.7 0.25 0
1.75 0.25 0
1.8 0.25 0
1.85 0.25 0
1.9 0.25 0
1.95 0.25 0
2 0.25 0
2.05 0.25 0
2.1 0.25 0
2.15 0.25 0
2.2 0.25 0
2.25 0.25 0
2.3 0.25 0
2.35 0.25 0
2.4 0.25 0
2.45 0.25 0
2.5 0.25 0
2.55 0.25 0
2.6 0.25 0
2.65 0.25 0
2.7 0.25 0
2.75 0.25 0
2.8 0.25 0
2.85 0.25 0
2.9 0.25 0
2.95 0.25 0
3 0.25 0
0 0.3 0
0.05 0.3 0
0.1 0.3 0
0.15 0.3 0
0.2 0.3 0
0.25 0.3 0
0.3 0.3 0
0.35 0.3 0
0.4 0.3 0
0.45 0.3 0
0.5 0.3 0
0.55 0.3 0
0.6 0.3 0
0.65 0.3 0
0.7 0.3 0
0.75 0.3 0
0.8 0.3 0
0.85 0.3 0
0.9 0.3 0
0.95 0.3 0
1 0.3 0
1.05 0.3 0
1.1 0.3 0
1.15 0.3 0
1.2 0.3 0
1.25 0.3 0
1.3 0.3 0
1.35 0.3 0
1.4 0.3 0
1.45 0.3 0
1.5 0.3 0
1.55 0.3 0
1.6 0.3 0
1.65 0.3 0
1.7 0.3 0
1.75 0.3 0
1.8 0.3 0
1.85 0.3 0
1.9 0.3 0
1.95 0.3 0
2 0.3 0
2.05 0.3 0
2.1 0.3 0
2.15 0.3 0
2.2 0.3 0
2.25 0.3 0
2.3 0.3 0
2.35 0.3 0
2.4 0.3 0
2.45 0.3 0
2.5 0.3 0
2.55 0.3 0
2.6 0.3 0
2.65 0.3 0
2.7 0.3 0
2.75 0.3 0
2.8 0.3 0
2.85 0.3 0
2.9 0.3 0
2.95 0.3 0
3 0.3 0
0 0.35 0
0.05 0.35 0
0.1 0.35 0
0.15 0.35 0
0.2 0.35 0
0.25 0.35 0
0.3 0.35 0
0.35 0.35 0
0.4 0.35 0
0.45 0.35 0
0.5 0.35 0
0.55 0.35 0
0.6 0.35 0
0.65 0.35 0
0.7 0.35 0
0.75 0.35 0
0.8 0.35 0
0.85 0.35 0
0.9 0.35 0
0.95 0.35 0
1 0.35 0
1.05 0.35 0
1.1 0.35 0
1.15 0.35 0
1.2 0.35 0
1.25 0.35 0
1.3 0.35 0
1.35 0.35 0
1.4 0.35 0
1.45 0.35 0
1.5 0.35 0
1.55 0.35 0
1.6 0.35 0
1.65 0.35 0
1.7 0.35 0
1.75 0.35 0
1.8 0.35 0
1.85 0.35 0
1.9 0.35 0
1.95 0.35 0
2 0.35 0
2.05 0.35 0
2.1 0.35 0
2.15 0.35 0
2.2 0.35 0
2.25 0.35 0
2.3 0.35 0
2.35 0.35 0
2.4 0.35 0
2.45 0.35 0
2.5 0.35 0
2.55 0.35 0
2.6 0.35 0
2.65 0.35 0
2.7 0.35 0
2.75 0.35 0
2.8 0.35 0
2.85 0.35 0
2.9 0.35 0
2.95 0.35 0
3 0.35 0
0 0.4 0
0.05 0.4 0
0.1 0.4 0
0.15 0.4 0
0.2 0.4 0
0.25 0.4 0
0.3 0.4 0
0.35 0.4 0
0.4 0.4 0
0.45 0.4 0
0.5 0.4 0
0.55 0.4 0
0.6 0.4 0
0.65 0.4 0
0.7 0.4 0
0.75 0.4 0
0.8 0.4 0
0.85 0.4 0
0.9 0.4 0
0.95 0.4 0
1 0.4 0
1.05 0.4 0
1.1 0.4 0
1.15 0.4 0
1.2 0.4 0
1.25 0.4 0
1.3 0.4 0
1.35 0.4 0
1.4 0.4 0
1.45 0.4 0
1.5 0.4 0
1.55 0.4 0
1.6 0.4 0
1.65 0.4 0
1.7 0.4 0
1.75 0.4 0
1.8 0.4 0
1.85 0.4 0
1.9 0.4 0
1.95 0.4 0
2 0.4 0
2.05 0.4 0
2.1 0.4 0
2.15 0.4 0
2.2 0.4 0
2.25 0.4 0
2.3 0.4 0
2.35 0.4 0
2.4 0.4 0
2.45 0.4 0
2.5 0.4 0
2.55 0.4 0
2.6 0.4 0
2.65 0.4 0
2.7 0.4 0
2.75 0.4 0
2.8 0.4 0
2.85 0.4 0
2.9 0.4 0
2.95 0.4 0
3 0.4 0
0 0.45 0
0.05 0.45 0
0.1 0.45 0
0.15 0.45 0
0.2 0.45 0
0.25 0.45 0
0.3 0.45 0
0.35 0.45 0
0.4 0.45 0
0.45 0.45 0
0.5 0.45 0
0.55 0.45 0
0.6 0.45 0
0.65 0.45 0
0.7 0.45 0
0.75 0.45 0
0.8 0.45 0
0.85 0.45 0
0.9 0.45 0
0.95 0.45 0
1 0.45 0
1.05 0.45 0
1.1 0.45 0
1.15 0.45 0
1.2 0.45 0
1.25 0.45 0
1.3 0.45 0
1.35 0.45 0
1.4 0.45 0
1.45 0.45 0
1.5 0.45 0
1.55 0.45 0
1.6 0.45 0
1.65 0.45 0
1.7 0.45 0
1.75 0.45 0
1.8 0.45 0
1.85 0.45 0
1.9 0.45 0
1.95 0.45 0
2 0.45 0
2.05 0.45 0
2.1 0.45 0
2.15 0.45 0
2.2 0.45 0
2.25 0.45 0
2.3 0.45 0
2.35 0.45 0
2.4 0.45 0
2.45 0.45 0
2.5 0.45 0
2.55 0.45 0
2.6 0.45 0
2.65 0.45 0
2.7 0.45 0
2.75 0.45 0
2.8 0.45 0
2.85 0.45 0
2.9 0.45 0
2.95 0.45 0
3 0.45 0
0 0.5 0
0.05 0.5 0
0.1 0.5 0
0.15 0.5 0
0.2 0.5 0
0.25 0.5 0
0.3 0.5 0
0.35 0.5 0
0.4 0.5 0
0.45 0.5 0
0.5 0.5 0
0.55 0.5 0
0.6 0.5 0
0.65 0.5 0
0.7 0.5 0
0.75 0.5 0
0.8 0.5 0
0.85 0.5 0
0.9 0.5 0
0.95 0.5 0
1 0.5 0
1.05 0.5 0
1.1 0.5 0
1.15 0.5 0
1.2 0.5 0
1.25 0.5 0
1.3 0.5 0
1.35 0.5 0
1.4 0.5 0
1.45 0.5 0
1.5 0.5 0
1.55 0.5 0
1.6 0.5 0
1.65 0.5 0
1.7 0.5 0
1.75 0.5 0
1.8 0.5 0
1.85 0.5 0
1.9 0.5 0
1.95 0.5 0
2 0.5 0
2.05 0.5 0
2.1 0.5 0
2.15 0.5 0
2.2 0.5 0
2.25 0.5 0
2.3 0.5 0
2.35 0.5 0
2.4 0.5 0
2.45 0.5 0
2.5 0.5 0
2.55 0.5 0
2.6 0.5 0
2.65 0.5 0
2.7 0.5 0
2.75 0.5 0
2.8 0.5 0
2.85 0.5 0
2.9 0.5 0
2.95 0.5 0
3 0.5 0
0 0.55 0
0.05 0.55 0
0.1 0.55 0
0.15 0.55 0
0.2 0.55 0
0.25 0.55 0
0.3 0.55 0
0.35 0.55 0
0.4 0.55 0
0.45 0.55 0
0.5 0.55 0
0.55 0.55 0
0.6 0.55 0
0.65 0.55 0
0.7 0.55 0
0.75 0.55 0
0.8 0.55 0
0.85 0.55 0
0.9 0.55 0
0.95 0.55 0
1 0.55 0
1.05 0.55 0
1.1 0.55 0
1.15 0.55 0
1.2 0.55 0
1.25 0.55 0
1.3 0.55 0
1.35 0.55 0
1.4 0.55 0
1.45 0.55 0
1.5 0.55 0
1.55 0.55 0
1.6 0.55 0
1.65 0.55 0
1.7 0.55 0
1.75 0.55 0
1.8 0.55 0
1.85 0.55 0
1.9 0.55 0
1.95 0.55 0
2 0.55 0
2.05 0.55 0
2.1 0.55 0
2.15 0.55 0
2.2 0.55 0
2.25 0.55 0
2.3 0.55 0
2.35 0.55 0
2.4 0.55 0
2.45 0.55 0
2.5 0.55 0
2.55 0.55 0
2.6 0.55 0
2.65 0.55 0
2.7 0.55 0
2.75 0.55 0
2.8 0.55 0
2.85 0.55 0
2.9 0.55 0
2.95 0.55 0
3 0.55 0
0 0.6 0
0.05 0.6 0
0.1 0.6 0
0.15 0.6 0
0.2 0.6 0
0.25 0.6 0
0.3 0.6 0
0.35 0.6 0
0.4 0.6 0
0.45 0.6 0
0.5 0.6 0
0.55 0.6 0
0.6 0.6 0
0.65 0.6 0
0.7 0.6 0
0.75 0.6 0
0.8 0.6 0
0.85 0.6 0
0.9 0.6 0
0.95 0.6 0
1 0.6 0
1.05 0.6 0
1.1 0.6 0
1.15 0.6 0
1.2 0.6 0
1.25 0.6 0
1.3 0.6 0
1.35 0.6 0
1.4 0.6 0
1.45 0.6 0
1.5 0.6 0
1.55 0.6 0
1.6 0.6 0
1.65 0.6 0
1.7 0.6 0
1.75 0.6 0
1.8 0.6 0
1.85 0.6 0
1.9 0.6 0
1.95 0.6 0
2 0.6 0
2.05 0.6 0
2.1 0.6 0
2.15 0.6 0
2.2 0.6 0
2.25 0.6 0
2.3 0.6 0
2.35 0.6 0
2.4 0.6 0
2.45 0.6 0
2.5 0.6 0
2.55 0.6 0
2.6 0.6 0
2.65 0.6 0
2.7 0.6 0
2.75 0.6 0
2.8 0.6 0
2.85 0.6 0
2.9 0.6 0
2.95 0.6 0
3 0.6 0
0 0.65 0
0.05 0.65 0
0.1 0.65 0
0.15 0.65 0
0.2 0.65 0
0.25 0.65 0
0.3 0.65 0
0.35 0.65 0
0.4 0.65 0
0.45 0.65 0
0.5 0.65 0
0.55 0.65 0
0.6 0.65 0
0.65 0.65 0
0.7 0.65 0
0.75 0.65 0
0.8 0.65 0
0.85 0.65 0
0.9 0.65 0
0.95 0.65 0
1 0.65 0
1.05 0.65 0
1.1 0.65 0
1.15 0.65 0
1.2 0.65 0
1.25 0.65 0
1.3 0.65 0
1.35 0.65 0
1.4 0.65 0
1.45 0.65 0
1.5 0.65 0
1.55 0.65 0
1.6 0.65 0
1.65 0.65 0
1.7 0.65 0
1.75 0.65 0
1.8 0.65 0
1.85 0.65 0
1.9 0.65 0
1.95 0.65 0
2 0.65 0
2.05 0.65 0
2.1 0.65 0
2.15 0.65 0
2.2 0.65 0
2.25 0.65 0
2.3 0.65 0
2.35 0.65 0
2.4 0.65 0
2.45 0.65 0
2.5 0.65 0
[...]
POINT_DATA 4331
SCALARS u double
LOOKUP_TABLE default
0
0
0
0
0
0
0
0
0
0
0
0
0
0
0
0
0
0
0
0
0
0
0
0
0
0
0
0
0
0
0
0
0
0
0
0
0
0
0
0
0
0
0
0
0
0
0
0
0
0
0
0
0
0
0
0
0
0
0
0
0
4.44846e-007
4.44846e-007
8.87488e-007
1.3257e-006
1.75707e-006
2.17913e-006
2.58908e-006
2.98401e-006
3.36055e-006
3.71523e-006
4.04406e-006
4.34299e-006
4.60744e-006
4.83291e-006
5.01448e-006
5.1475e-006
5.22717e-006
5.24923e-006
5.20965e-006
5.10533e-006
4.93383e-006
4.69406e-006
4.38604e-006
4.01148e-006
3.57352e-006
3.07716e-006
2.52892e-006
1.93703e-006
1.311e-006
6.61576e-007
2.27389e-010
-6.61123e-007
-1.31056e-006
-1.93659e-006
-2.5285e-006
-3.07675e-006
-3.57313e-006
-4.01111e-006
-4.3857e-006
-4.69375e-006
-4.93354e-006
-5.10507e-006
-5.20942e-006
-5.24902e-006
-5.22699e-006
-5.14735e-006
-5.01436e-006
-4.83281e-006
-4.60736e-006
-4.34292e-006
-4.04401e-006
-3.71519e-006
-3.36052e-006
-2.98399e-006
-2.58907e-006
-2.17913e-006
-1.75707e-006
-1.3257e-006
-8.87489e-007
-4.44846e-007
-4.44846e-007
4.49051e-007
4.49051e-007
8.95987e-007
1.33861e-006
1.77465e-006
2.20161e-006
2.61685e-006
3.01735e-006
3.39994e-006
3.76096e-006
4.09661e-006
4.40255e-006
4.67435e-006
4.90714e-006
5.09608e-006
5.23606e-006
5.32228e-006
5.34996e-006
5.315e-006
5.21374e-006
5.04364e-006
4.80311e-006
4.49212e-006
4.112e-006
3.666e-006
3.15897e-006
2.59773e-006
1.99066e-006
1.34779e-006
6.80275e-007
2.3186e-010
-6.79813e-007
-1.34733e-006
-1.99021e-006
-2.59729e-006
-3.15855e-006
-3.6656e-006
-4.11163e-006
-4.49177e-006
-4.80279e-006
-5.04335e-006
-5.21347e-006
-5.31477e-006
-5.34975e-006
-5.32211e-006
-5.23591e-006
-5.09595e-006
-4.90703e-006
-4.67427e-006
-4.40248e-006
-4.09656e-006
-3.76093e-006
-3.39992e-006
-3.01733e-006
-2.61684e-006
-2.20161e-006
-1.77465e-006
-1.33861e-006
-8.95988e-007
-4.49051e-007
-4.49051e-007
4.55982e-007
4.55982e-007
9.09963e-007
1.35991e-006
1.8036e-006
2.23873e-006
2.66264e-006
3.07252e-006
3.46508e-006
3.83683e-006
4.18375e-006
4.50162e-006
4.78565e-006
5.03099e-006
5.23228e-006
5.38431e-006
5.48161e-006
5.51916e-006
5.49209e-006
5.39643e-006
5.22886e-006
4.98747e-006
4.67159e-006
4.28243e-006
3.82289e-006
3.29801e-006
2.71471e-006
2.08197e-006
1.41041e-006
7.12139e-007
2.39479e-010
-7.11663e-007
-1.40994e-006
-2.08151e-006
-2.71426e-006
-3.29757e-006
-3.82248e-006
-4.28205e-006
-4.67123e-006
-4.98714e-006
-5.22855e-006
-5.39616e-006
-5.49185e-006
-5.51895e-006
-5.48143e-006
-5.38415e-006
-5.23215e-006
-5.03089e-006
-4.78557e-006
-4.50156e-006
-4.18371e-006
-3.8368e-006
-3.46506e-006
-3.07251e-006
-2.66264e-006
-2.23873e-006
-1.8036e-006
-1.35991e-006
-9.09965e-007
-4.55983e-007
-4.55983e-007
4.65494e-007
4.65494e-007
9.29183e-007
1.38917e-006
1.84348e-006
2.28986e-006
2.72589e-006
3.14875e-006
3.55535e-006
3.94206e-006
4.30501e-006
4.63965e-006
4.94123e-006
5.20438e-006
5.4236e-006
5.59293e-006
5.70655e-006
5.75852e-006
5.74342e-006
5.65624e-006
5.49304e-006
5.25094e-006
4.92879e-006
4.52709e-006
4.04864e-006
3.49834e-006
2.88357e-006
2.21389e-006
1.50099e-006
7.5824e-007
2.50136e-010
-7.57742e-007
-1.5005e-006
-2.2134e-006
-2.8831e-006
-3.49789e-006
-4.04821e-006
-4.52669e-006
-4.92842e-006
-5.2506e-006
-5.49273e-006
-5.65596e-006
-5.74318e-006
-5.7583e-006
-5.70637e-006
-5.59277e-006
-5.42347e-006
-5.20428e-006
-4.94116e-006
-4.63959e-006
-4.30497e-006
-3.94204e-006
-3.55533e-006
-3.14874e-006
-2.72589e-006
-2.28986e-006
-1.84348e-006
-1.38918e-006
-9.29187e-007
-4.65496e-007
-4.65496e-007
4.7741e-007
4.7741e-007
9.53246e-007
1.42589e-006
1.89352e-006
2.35419e-006
2.80557e-006
3.24508e-006
3.66961e-006
4.07574e-006
4.45936e-006
4.81603e-006
5.14054e-006
5.42739e-006
5.67036e-006
5.86309e-006
5.99874e-006
6.07068e-006
6.07221e-006
5.99743e-006
5.84104e-006
5.59927e-006
5.26977e-006
4.85249e-006
4.34961e-006
3.76612e-006
3.10969e-006
2.39086e-006
1.62263e-006
8.20206e-007
2.64092e-010
-8.1968e-007
-1.62211e-006
-2.39035e-006
-3.1092e-006
-3.76565e-006
-4.34916e-006
-4.85207e-006
-5.26938e-006
-5.59891e-006
-5.84072e-006
-5.99714e-006
-6.07196e-006
-6.07046e-006
-5.99856e-006
-5.86294e-006
-5.67024e-006
-5.42729e-006
-5.14047e-006
-4.81598e-006
-4.45933e-006
-4.07572e-006
-3.6696e-006
-3.24508e-006
-2.80557e-006
-2.3542e-006
-1.89353e-006
-1.4259e-006
-9.53253e-007
-4.77414e-007
-4.77414e-007
4.91465e-007
4.91465e-007
9.8168e-007
1.46929e-006
1.95283e-006
2.43054e-006
2.90044e-006
3.36002e-006
3.80649e-006
4.23633e-006
4.64561e-006
5.02957e-006
5.38296e-006
5.69966e-006
5.97308e-006
6.19586e-006
6.36041e-006
6.45868e-006
6.48287e-006
6.42534e-006
6.27951e-006
6.03986e-006
5.7029e-006
5.26729e-006
4.73466e-006
4.10969e-006
3.40062e-006
2.619e-006
1.77971e-006
9.00287e-007
2.81274e-010
-8.99726e-007
-1.77916e-006
-2.61846e-006
-3.40009e-006
-4.10919e-006
-4.73418e-006
-5.26684e-006
-5.70249e-006
-6.03948e-006
-6.27917e-006
-6.42504e-006
-6.4826e-006
-6.45845e-006
-6.36023e-006
-6.19571e-006
-5.97296e-006
-5.69957e-006
-5.3829e-006
-5.02953e-006
-4.64559e-006
-4.23632e-006
-3.80649e-006
-3.36003e-006
-2.90045e-006
-2.43056e-006
-1.95285e-006
-1.4693e-006
-9.81689e-007
-4.9147e-007
-4.9147e-007
5.07353e-007
5.07353e-007
1.01382e-006
1.51847e-006
2.02014e-006
2.51749e-006
3.00875e-006
3.49183e-006
3.96398e-006
4.42201e-006
4.86184e-006
5.27881e-006
5.66723e-006
6.02073e-006
6.33186e-006
6.59255e-006
6.79381e-006
6.92636e-006
6.98047e-006
6.94684e-006
6.81662e-006
6.58248e-006
6.23886e-006
5.78302e-006
5.21537e-006
4.54032e-006
3.7664e-006
2.90664e-006
1.97811e-006
1.00157e-006
3.01935e-010
-1.00096e-006
-1.97752e-006
-2.90606e-006
-3.76584e-006
-4.53977e-006
-5.21485e-006
-5.78253e-006
-6.23841e-006
-6.58207e-006
-6.81625e-006
-6.94652e-006
-6.9802e-006
-6.92614e-006
-6.79363e-006
-6.59241e-006
-6.33175e-006
-6.02065e-006
-5.66718e-006
-5.27879e-006
-4.86183e-006
-4.42202e-006
-3.964e-006
-3.49185e-006
-3.00877e-006
-2.51751e-006
-2.02016e-006
-1.51849e-006
-1.01384e-006
-5.0736e-007
-5.0736e-007
5.24665e-007
5.24665e-007
1.04892e-006
1.57224e-006
2.09398e-006
2.61314e-006
3.12845e-006
3.63806e-006
4.13967e-006
4.63015e-006
5.1057e-006
5.56145e-006
5.99168e-006
6.38939e-006
6.74662e-006
7.05404e-006
7.30152e-006
7.47778e-006
7.57123e-006
7.56991e-006
7.46259e-006
7.23904e-006
6.89131e-006
6.41428e-006
5.80689e-006
5.07261e-006
4.22042e-006
3.26478e-006
2.22576e-006
1.12815e-006
3.25968e-010
-1.1275e-006
-2.22512e-006
-3.26415e-006
-4.2198e-006
-5.07202e-006
-5.80633e-006
-6.41376e-006
-6.89083e-006
-7.2386e-006
-7.46221e-006
-7.56958e-006
-7.57095e-006
-7.47755e-006
-7.30133e-006
-7.0539e-006
-6.74651e-006
-6.38932e-006
-5.99164e-006
-5.56143e-006
-5.1057e-006
-4.63017e-006
-4.1397e-006
-3.63809e-006
-3.12848e-006
-2.61317e-006
-2.09401e-006
-1.57227e-006
-1.04894e-006
-5.24674e-007
-5.24674e-007
5.42941e-007
5.42941e-007
1.086e-006
1.62924e-006
2.17246e-006
2.71529e-006
3.25684e-006
3.79586e-006
4.33031e-006
4.85754e-006
5.37382e-006
5.87452e-006
6.3536e-006
6.80385e-006
7.21638e-006
7.58098e-006
7.8857e-006
8.11745e-006
8.26183e-006
8.30412e-006
8.22949e-006
8.02437e-006
7.67715e-006
7.17976e-006
6.52854e-006
5.72573e-006
4.78015e-006
3.7081e-006
2.53317e-006
1.28557e-006
3.53482e-010
-1.28487e-006
-2.53247e-006
-3.70741e-006
-4.77948e-006
-5.72508e-006
-6.52793e-006
-7.17919e-006
-7.67663e-006
-8.0239e-006
-8.22908e-006
-8.30377e-006
-8.26154e-006
-8.11721e-006
-7.88552e-006
-7.58085e-006
-7.21629e-006
-6.8038e-006
-6.35358e-006
-5.87452e-006
-5.37384e-006
-4.85758e-006
-4.33035e-006
-3.79591e-006
-3.25689e-006
-2.71533e-006
-2.1725e-006
-1.62927e-006
-1.08603e-006
-5.42953e-007
-5.42953e-007
5.61612e-007
5.61612e-007
1.12398e-006
1.68776e-006
2.25344e-006
2.82118e-006
3.39081e-006
3.96155e-006
4.53203e-006
5.09993e-006
5.66205e-006
6.21381e-006
6.74936e-006
7.26101e-006
7.73939e-006
8.17295e-006
8.54823e-006
8.84958e-006
9.05976e-006
9.1601e-006
9.13169e-006
8.95615e-006
8.61735e-006
8.10272e-006
7.40515e-006
6.52437e-006
5.4687e-006
4.25603e-006
2.91445e-006
1.4812e-006
3.84117e-010
-1.48044e-006
-2.91369e-006
-4.25528e-006
-5.46797e-006
-6.52366e-006
-7.40448e-006
-8.1021e-006
-8.61678e-006
-8.95564e-006
-9.13125e-006
-9.15972e-006
-9.05945e-006
-8.84934e-006
-8.54806e-006
-8.17283e-006
-7.73932e-006
-7.26097e-006
-6.74936e-006
-6.21384e-006
-5.6621e-006
-5.09998e-006
-4.53209e-006
-3.96161e-006
-3.39088e-006
-2.82124e-006
-2.25349e-006
-1.6878e-006
-1.12401e-006
-5.61626e-007
-5.61626e-007
5.80042e-007
5.80042e-007
1.16155e-006
1.7459e-006
2.33429e-006
2.92767e-006
3.5265e-006
4.13084e-006
4.7399e-006
5.35217e-006
5.96486e-006
6.57398e-006
7.17372e-006
7.75648e-006
8.31219e-006
8.82843e-006
9.28975e-006
9.67809e-006
9.97243e-006
1.01498e-005
1.01856e-005
1.00556e-005
9.73739e-006
9.21239e-006
8.46819e-006
7.50077e-006
6.31651e-006
4.93466e-006
3.38856e-006
1.72502e-006
4.17463e-010
-1.72419e-006
-3.38773e-006
-4.93383e-006
-6.3157e-006
-7.49998e-006
-8.46745e-006
-9.2117e-006
-9.73676e-006
-1.00551e-005
-1.01851e-005
-1.01494e-005
-9.97212e-006
-9.67785e-006
-9.28959e-006
-8.82832e-006
-8.31214e-006
-7.75647e-006
-7.17374e-006
-6.57403e-006
-5.96493e-006
-5.35226e-006
-4.74e-006
-4.13093e-006
-3.52659e-006
-2.92775e-006
-2.33436e-006
-1.74596e-006
-1.16158e-006
-5.8006e-007
-5.8006e-007
5.97488e-007
5.97488e-007
1.19724e-006
1.80144e-006
2.41211e-006
3.03099e-006
3.65952e-006
4.2985e-006
4.94818e-006
5.60778e-006
6.27548e-006
6.94785e-006
7.61977e-006
8.28369e-006
8.92949e-006
9.54371e-006
1.01094e-005
1.06055e-005
1.10071e-005
1.12856e-005
1.14099e-005
1.13477e-005
1.10683e-005
1.05449e-005
9.75778e-006
8.69676e-006
7.36425e-006
5.77928e-006
3.98132e-006
2.03049e-006
4.5226e-010
-2.02959e-006
-3.98041e-006
-5.77837e-006
-7.36334e-006
-8.69588e-006
-9.75695e-006
-1.05441e-005
-1.10676e-005
-1.13471e-005
-1.14094e-005
-1.12852e-005
-1.10068e-005
-1.06052e-005
-1.01092e-005
-9.54363e-006
-8.92947e-006
-8.28371e-006
-7.61983e-006
-6.94794e-006
-6.27559e-006
-5.60789e-006
-4.9483e-006
-4.29862e-006
-3.65963e-006
-3.03109e-006
-2.41219e-006
-1.8015e-006
-1.19729e-006
-5.9751e-007
-5.9751e-007
6.13142e-007
6.13142e-007
1.22941e-006
1.85189e-006
2.4835e-006
3.12697e-006
3.78466e-006
4.45855e-006
5.14985e-006
5.85906e-006
6.58534e-006
7.3265e-006
8.0782e-006
8.83373e-006
9.58306e-006
1.03125e-005
1.10034e-005
1.16323e-005
1.21696e-005
1.25805e-005
1.28252e-005
1.28614e-005
1.26471e-005
1.21447e-005
1.13245e-005
1.01671e-005
8.66672e-006
6.83868e-006
4.72814e-006
2.4158e-006
4.86444e-010
-2.41482e-006
-4.72715e-006
-6.83767e-006
-8.66571e-006
-1.01661e-005
-1.13236e-005
-1.21438e-005
-1.26463e-005
-1.28607e-005
-1.28247e-005
-1.25801e-005
-1.21693e-005
-1.16321e-005
-1.10033e-005
-1.03124e-005
-9.58308e-006
-8.8338e-006
-8.0783e-006
-7.32663e-006
-6.58549e-006
-5.85921e-006
-5.15001e-006
-4.4587e-006
-3.7848e-006
-3.12709e-006
-2.4836e-006
-1.85197e-006
-1.22947e-006
-6.13169e-007
-6.13169e-007
6.26101e-007
6.26101e-007
1.25627e-006
1.89451e-006
2.54478e-006
3.21082e-006
3.89619e-006
4.604e-006
5.33691e-006
6.09671e-006
6.88421e-006
7.69859e-006
8.53715e-006
9.39434e-006
1.02612e-005
1.11243e-005
1.19643e-005
1.27553e-005
1.34634e-005
1.40462e-005
1.44536e-005
1.46297e-005
1.45179e-005
1.40661e-005
1.32318e-005
1.19832e-005
1.02992e-005
8.18237e-006
5.678e-006
2.90468e-006
5.15883e-010
-2.90364e-006
-5.67692e-006
-8.18126e-006
-1.02981e-005
-1.1982e-005
-1.32308e-005
-1.40651e-005
-1.4517e-005
-1.4629e-005
-1.4453e-005
-1.40457e-005
-1.34631e-005
-1.27551e-005
-1.19642e-005
-1.11243e-005
-1.02613e-005
-9.39446e-006
-8.53731e-006
-7.69878e-006
-6.88441e-006
-6.09692e-006
-5.33711e-006
-4.60418e-006
-3.89636e-006
-3.21096e-006
-2.5449e-006
-1.8946e-006
-1.25633e-006
-6.26133e-007
-6.26133e-007
6.35417e-007
6.35417e-007
1.27586e-006
1.92636e-006
2.59189e-006
3.27739e-006
3.9876e-006
4.72712e-006
5.50008e-006
6.31009e-006
7.15976e-006
8.05045e-006
8.98148e-006
9.94959e-006
1.09476e-005
1.19636e-005
1.29788e-005
1.39658e-005
1.48869e-005
1.56918e-005
1.63175e-005
1.66903e-005
1.67327e-005
1.63736e-005
1.55569e-005
1.42374e-005
1.23671e-005
9.91546e-006
6.89805e-006
3.52506e-006
5.33312e-010
-3.52397e-006
-6.89689e-006
-9.91421e-006
-1.23658e-005
-1.42361e-005
-1.55556e-005
-1.63724e-005
-1.67317e-005
-1.66895e-005
-1.63169e-005
-1.56914e-005
-1.48866e-005
-1.39657e-005
-1.29787e-005
-1.19637e-005
-1.09478e-005
-9.94977e-006
-8.9817e-006
-8.0507e-006
-7.16001e-006
-6.31035e-006
-5.50032e-006
-4.72735e-006
-3.9878e-006
-3.27756e-006
-2.59204e-006
-1.92647e-006
-1.27594e-006
-6.35454e-007
-6.35454e-007
6.40085e-007
6.40085e-007
1.28618e-006
1.94432e-006
2.62059e-006
3.32108e-006
4.05198e-006
4.81932e-006
5.62911e-006
6.48691e-006
7.39776e-006
8.36556e-006
9.39267e-006
1.04789e-005
1.16204e-005
1.28081e-005
1.40258e-005
1.52468e-005
1.64312e-005
1.75212e-005
1.84387e-005
1.90856e-005
1.9353e-005
1.91423e-005
1.83883e-005
1.70454e-005
1.50188e-005
1.22162e-005
8.47504e-006
4.29764e-006
5.25222e-010
-4.29654e-006
-8.4738e-006
-1.22148e-005
-1.50172e-005
-1.70438e-005
-1.83867e-005
-1.91409e-005
-1.93518e-005
-1.90847e-005
-1.8438e-005
-1.75207e-005
-1.64309e-005
-1.52467e-005
-1.40258e-005
-1.28083e-005
-1.16206e-005
-1.04791e-005
-9.39297e-006
-8.36587e-006
-7.39808e-006
-6.48722e-006
-5.6294e-006
-4.81959e-006
-4.05222e-006
-3.32129e-006
-2.62076e-006
-1.94445e-006
-1.28627e-006
-6.40129e-007
-6.40129e-007
6.39105e-007
6.39105e-007
1.28517e-006
1.94524e-006
2.62645e-006
3.33617e-006
4.08192e-006
4.87149e-006
5.71274e-006
6.61367e-006
7.58195e-006
8.62484e-006
9.74836e-006
1.09567e-005
1.22508e-005
1.36269e-005
1.50737e-005
1.65689e-005
1.80741e-005
1.95274e-005
2.08348e-005
2.18647e-005
2.24555e-005
2.24583e-005
2.18119e-005
2.05403e-005
1.8449e-005
1.54578e-005
1.04896e-005
5.19067e-006
4.66779e-010
-5.18964e-006
-1.04883e-005
-1.54562e-005
-1.84472e-005
-2.05384e-005
-2.18101e-005
-2.24566e-005
-2.24542e-005
-2.18637e-005
-2.08341e-005
-1.95269e-005
-1.80739e-005
-1.65689e-005
-1.50738e-005
-1.36272e-005
-1.22512e-005
-1.09571e-005
-9.74875e-006
-8.62524e-006
-7.58234e-006
-6.61404e-006
-5.71309e-006
-4.87181e-006
-4.0822e-006
-3.33641e-006
-2.62664e-006
-1.94538e-006
-1.28527e-006
-6.39156e-007
-6.39156e-007
6.31486e-007
6.31486e-007
1.27082e-006
1.92596e-006
2.60511e-006
3.31678e-006
4.06997e-006
4.8741e-006
5.73921e-006
6.67572e-006
7.69454e-006
8.80662e-006
1.00227e-005
1.13523e-005
1.28032e-005
1.43789e-005
1.60772e-005
1.78852e-005
1.97732e-005
2.16837e-005
2.35129e-005
2.50871e-005
2.61504e-005
2.64272e-005
2.58647e-005
2.48583e-005
2.27819e-005
2.06784e-005
1.28366e-005
5.97574e-006
3.10281e-010
-5.97492e-006
-1.28353e-005
-2.06766e-005
-2.27796e-005
-2.48559e-005
-2.58624e-005
-2.64252e-005
-2.61488e-005
-2.5086e-005
-2.35122e-005
-2.16833e-005
-1.97731e-005
-1.78853e-005
-1.60775e-005
-1.43793e-005
-1.28036e-005
-1.13528e-005
-1.00232e-005
-8.80712e-006
-7.69502e-006
-6.67617e-006
-5.73962e-006
-4.87448e-006
-4.0703e-006
-3.31706e-006
-2.60533e-006
-1.92613e-006
-1.27093e-006
-6.31543e-007
-6.31543e-007
6.16319e-007
6.16319e-007
1.24124e-006
1.88356e-006
2.55237e-006
3.25734e-006
4.00875e-006
4.81776e-006
5.69644e-006
6.65797e-006
7.71653e-006
8.88739e-006
1.01865e-005
1.16301e-005
1.3234e-005
1.50122e-005
1.69749e-005
1.91254e-005
2.14541e-005
2.39256e-005
2.64504e-005
2.88249e-005
3.06361e-005
3.12398e-005
3.03653e-005
3.02499e-005
2.71329e-005
3.1493e-005
1.39322e-005
5.70709e-006
-1.07468e-010
-5.70734e-006
-1.39321e-005
-3.14916e-005
-2.713e-005
-3.02467e-005
-3.03624e-005
-3.12373e-005
-3.06342e-005
-2.88237e-005
-2.64497e-005
-2.39254e-005
-2.14542e-005
-1.91257e-005
-1.69754e-005
-1.50127e-005
-1.32346e-005
-1.16307e-005
-1.01871e-005
-8.88799e-006
-7.7171e-006
-6.6585e-006
-5.69692e-006
-4.81819e-006
-4.00912e-006
-3.25766e-006
-2.55263e-006
-1.88375e-006
-1.24137e-006
-6.16384e-007
-6.16384e-007
5.92801e-007
5.92801e-007
1.1948e-006
1.81542e-006
2.46454e-006
3.15271e-006
3.89147e-006
4.69346e-006
5.57283e-006
6.54534e-006
7.62868e-006
8.84252e-006
1.02086e-005
1.17507e-005
1.34939e-005
1.54644e-005
1.76884e-005
2.01914e-005
2.29963e-005
2.61185e-005
2.95424e-005
3.31306e-005
3.63339e-005
3.75351e-005
3.40949e-005
3.85967e-005
2.45188e-005
2.51797e-005
1.1709e-005
5.43159e-006
-5.70253e-010
-5.43343e-006
-1.17127e-005
-2.51854e-005
-2.45242e-005
-3.85976e-005
-3.4092e-005
-3.75319e-005
-3.63318e-005
-3.31294e-005
-2.9542e-005
-2.61185e-005
-2.29966e-005
-2.0192e-005
-1.76891e-005
-1.54651e-005
-1.34947e-005
-1.17514e-005
-1.02094e-005
-8.84324e-006
-7.62936e-006
-6.54595e-006
-5.57339e-006
-4.69395e-006
-3.89189e-006
-3.15307e-006
-2.46482e-006
-1.81563e-006
-1.19494e-006
-5.92873e-007
-5.92873e-007
5.60309e-007
5.60309e-007
1.13018e-006
1.71944e-006
2.3385e-006
2.99862e-006
3.71222e-006
4.49332e-006
5.35777e-006
6.32383e-006
7.41243e-006
8.64773e-006
1.00574e-005
1.16728e-005
1.35293e-005
1.56662e-005
1.81265e-005
2.09591e-005
2.42251e-005
2.80138e-005
3.24748e-005
3.7826e-005
4.40385e-005
4.8556e-005
3.03122e-005
3.01153e-005
1.15273e-005
-1.43502e-005
4.26063e-006
4.87845e-006
-2.32923e-010
-4.87961e-006
-4.26408e-006
1.43428e-005
-1.15392e-005
-3.01293e-005
-3.0321e-005
-4.85569e-005
-4.40363e-005
-3.7825e-005
-3.24747e-005
-2.80142e-005
-2.42258e-005
-2.09601e-005
-1.81275e-005
-1.56672e-005
-1.35304e-005
-1.16738e-005
-1.00583e-005
-8.64858e-006
-7.41321e-006
-6.32454e-006
-5.3584e-006
-4.49387e-006
-3.7127e-006
-2.99901e-006
-2.33882e-006
-1.71968e-006
-1.13033e-006
-5.60389e-007
-5.60389e-007
5.18439e-007
5.18439e-007
1.04652e-006
1.59422e-006
2.17214e-006
2.79192e-006
3.4666e-006
4.21106e-006
5.04258e-006
5.98137e-006
7.05131e-006
8.28058e-006
9.70252e-006
1.13562e-005
1.32872e-005
1.55474e-005
1.81953e-005
2.12971e-005
2.49348e-005
2.9241e-005
3.45215e-005
4.16649e-005
5.38992e-005
4.06015e-005
2.10472e-005
-3.95202e-006
1.41302e-006
-2.54159e-005
-2.30706e-006
1.98284e-006
8.8936e-010
-1.98129e-006
2.30795e-006
2.54154e-005
-1.41759e-006
3.93962e-006
-2.10663e-005
-4.06165e-005
-5.39035e-005
-4.16645e-005
-3.45221e-005
-2.92421e-005
-2.49361e-005
-2.12985e-005
-1.81967e-005
-1.55487e-005
-1.32885e-005
-1.13574e-005
-9.70359e-006
-8.28156e-006
-7.0522e-006
-5.98217e-006
-5.04328e-006
-4.21167e-006
-3.46712e-006
-2.79236e-006
-2.17249e-006
-1.59448e-006
-1.0467e-006
-5.18525e-007
-5.18525e-007
4.67067e-007
4.67067e-007
9.43543e-007
1.4392e-006
1.96449e-006
2.53105e-006
3.15203e-006
3.84275e-006
4.62124e-006
5.5091e-006
6.53231e-006
7.72243e-006
9.11771e-006
1.07645e-005
1.27181e-005
1.50434e-005
1.7813e-005
2.11023e-005
2.49797e-005
2.94979e-005
3.47098e-005
4.07626e-005
4.86985e-005
7.73869e-006
1.95466e-005
-1.07061e-005
-1.51755e-007
-7.13892e-006
-2.85678e-006
-3.67595e-007
2.23465e-009